# vtk DataFile Version 2.0
Unstructured Grid Example
ASCII
DATASET UNSTRUCTURED_GRID
POINTS 6462 float
-6.000000e-02 -6.000000e-02 +0.000000e+00 
-4.000000e-02 -6.000000e-02 +0.000000e+00 
-6.000000e-02 -4.000000e-02 +0.000000e+00 
-4.000000e-02 -4.000000e-02 +0.000000e+00 
-2.000000e-02 -6.000000e-02 +0.000000e+00 
+0.000000e+00 -6.000000e-02 +0.000000e+00 
-2.000000e-02 -4.000000e-02 +0.000000e+00 
+0.000000e+00 -4.000000e-02 +0.000000e+00 
+2.000000e-02 -6.000000e-02 +0.000000e+00 
+4.000000e-02 -6.000000e-02 +0.000000e+00 
+2.000000e-02 -4.000000e-02 +0.000000e+00 
+4.000000e-02 -4.000000e-02 +0.000000e+00 
+6.000000e-02 -6.000000e-02 +0.000000e+00 
+8.000000e-02 -6.000000e-02 +0.000000e+00 
+1.000000e-01 -6.000000e-02 +0.000000e+00 
+6.000000e-02 -4.000000e-02 +0.000000e+00 
+8.000000e-02 -4.000000e-02 +0.000000e+00 
+1.000000e-01 -4.000000e-02 +0.000000e+00 
+1.200000e-01 -6.000000e-02 +0.000000e+00 
+1.400000e-01 -6.000000e-02 +0.000000e+00 
+1.200000e-01 -4.000000e-02 +0.000000e+00 
+1.400000e-01 -4.000000e-02 +0.000000e+00 
+1.600000e-01 -6.000000e-02 +0.000000e+00 
+1.800000e-01 -6.000000e-02 +0.000000e+00 
+2.000000e-01 -6.000000e-02 +0.000000e+00 
+1.600000e-01 -4.000000e-02 +0.000000e+00 
+1.800000e-01 -4.000000e-02 +0.000000e+00 
+2.000000e-01 -4.000000e-02 +0.000000e+00 
+2.200000e-01 -6.000000e-02 +0.000000e+00 
+2.400000e-01 -6.000000e-02 +0.000000e+00 
+2.200000e-01 -4.000000e-02 +0.000000e+00 
+2.400000e-01 -4.000000e-02 +0.000000e+00 
+2.600000e-01 -6.000000e-02 +0.000000e+00 
+2.800000e-01 -6.000000e-02 +0.000000e+00 
+2.600000e-01 -4.000000e-02 +0.000000e+00 
+2.800000e-01 -4.000000e-02 +0.000000e+00 
+3.000000e-01 -6.000000e-02 +0.000000e+00 
+3.200000e-01 -6.000000e-02 +0.000000e+00 
+3.400000e-01 -6.000000e-02 +0.000000e+00 
+3.000000e-01 -4.000000e-02 +0.000000e+00 
+3.200000e-01 -4.000000e-02 +0.000000e+00 
+3.400000e-01 -4.000000e-02 +0.000000e+00 
+3.600000e-01 -6.000000e-02 +0.000000e+00 
+3.800000e-01 -6.000000e-02 +0.000000e+00 
+3.600000e-01 -4.000000e-02 +0.000000e+00 
+3.800000e-01 -4.000000e-02 +0.000000e+00 
+4.000000e-01 -6.000000e-02 +0.000000e+00 
+4.200000e-01 -6.000000e-02 +0.000000e+00 
+4.400000e-01 -6.000000e-02 +0.000000e+00 
+4.000000e-01 -4.000000e-02 +0.000000e+00 
+4.200000e-01 -4.000000e-02 +0.000000e+00 
+4.400000e-01 -4.000000e-02 +0.000000e+00 
+4.600000e-01 -6.000000e-02 +0.000000e+00 
+4.800000e-01 -6.000000e-02 +0.000000e+00 
+4.600000e-01 -4.000000e-02 +0.000000e+00 
+4.800000e-01 -4.000000e-02 +0.000000e+00 
+5.000000e-01 -6.000000e-02 +0.000000e+00 
+5.200000e-01 -6.000000e-02 +0.000000e+00 
+5.000000e-01 -4.000000e-02 +0.000000e+00 
+5.200000e-01 -4.000000e-02 +0.000000e+00 
+5.400000e-01 -6.000000e-02 +0.000000e+00 
+5.600000e-01 -6.000000e-02 +0.000000e+00 
+5.800000e-01 -6.000000e-02 +0.000000e+00 
+5.400000e-01 -4.000000e-02 +0.000000e+00 
+5.600000e-01 -4.000000e-02 +0.000000e+00 
+5.800000e-01 -4.000000e-02 +0.000000e+00 
+6.000000e-01 -6.000000e-02 +0.000000e+00 
+6.200000e-01 -6.000000e-02 +0.000000e+00 
+6.000000e-01 -4.000000e-02 +0.000000e+00 
+6.200000e-01 -4.000000e-02 +0.000000e+00 
+6.400000e-01 -6.000000e-02 +0.000000e+00 
+6.600000e-01 -6.000000e-02 +0.000000e+00 
+6.800000e-01 -6.000000e-02 +0.000000e+00 
+6.400000e-01 -4.000000e-02 +0.000000e+00 
+6.600000e-01 -4.000000e-02 +0.000000e+00 
+6.800000e-01 -4.000000e-02 +0.000000e+00 
+7.000000e-01 -6.000000e-02 +0.000000e+00 
+7.200000e-01 -6.000000e-02 +0.000000e+00 
+7.000000e-01 -4.000000e-02 +0.000000e+00 
+7.200000e-01 -4.000000e-02 +0.000000e+00 
+7.400000e-01 -6.000000e-02 +0.000000e+00 
+7.600000e-01 -6.000000e-02 +0.000000e+00 
+7.400000e-01 -4.000000e-02 +0.000000e+00 
+7.600000e-01 -4.000000e-02 +0.000000e+00 
+7.800000e-01 -6.000000e-02 +0.000000e+00 
+8.000000e-01 -6.000000e-02 +0.000000e+00 
+8.200000e-01 -6.000000e-02 +0.000000e+00 
+7.800000e-01 -4.000000e-02 +0.000000e+00 
+8.000000e-01 -4.000000e-02 +0.000000e+00 
+8.200000e-01 -4.000000e-02 +0.000000e+00 
+8.400000e-01 -6.000000e-02 +0.000000e+00 
+8.600000e-01 -6.000000e-02 +0.000000e+00 
+8.400000e-01 -4.000000e-02 +0.000000e+00 
+8.600000e-01 -4.000000e-02 +0.000000e+00 
+8.800000e-01 -6.000000e-02 +0.000000e+00 
+9.000000e-01 -6.000000e-02 +0.000000e+00 
+8.800000e-01 -4.000000e-02 +0.000000e+00 
+9.000000e-01 -4.000000e-02 +0.000000e+00 
+9.200000e-01 -6.000000e-02 +0.000000e+00 
+9.400000e-01 -6.000000e-02 +0.000000e+00 
+9.600000e-01 -6.000000e-02 +0.000000e+00 
+9.200000e-01 -4.000000e-02 +0.000000e+00 
+9.400000e-01 -4.000000e-02 +0.000000e+00 
+9.600000e-01 -4.000000e-02 +0.000000e+00 
+9.800000e-01 -6.000000e-02 +0.000000e+00 
+1.000000e+00 -6.000000e-02 +0.000000e+00 
+9.800000e-01 -4.000000e-02 +0.000000e+00 
+1.000000e+00 -4.000000e-02 +0.000000e+00 
+1.020000e+00 -6.000000e-02 +0.000000e+00 
+1.040000e+00 -6.000000e-02 +0.000000e+00 
+1.060000e+00 -6.000000e-02 +0.000000e+00 
+1.020000e+00 -4.000000e-02 +0.000000e+00 
+1.040000e+00 -4.000000e-02 +0.000000e+00 
+1.060000e+00 -4.000000e-02 +0.000000e+00 
+1.080000e+00 -6.000000e-02 +0.000000e+00 
+1.100000e+00 -6.000000e-02 +0.000000e+00 
+1.080000e+00 -4.000000e-02 +0.000000e+00 
+1.100000e+00 -4.000000e-02 +0.000000e+00 
+1.120000e+00 -6.000000e-02 +0.000000e+00 
+1.140000e+00 -6.000000e-02 +0.000000e+00 
+1.160000e+00 -6.000000e-02 +0.000000e+00 
+1.120000e+00 -4.000000e-02 +0.000000e+00 
+1.140000e+00 -4.000000e-02 +0.000000e+00 
+1.160000e+00 -4.000000e-02 +0.000000e+00 
+1.180000e+00 -6.000000e-02 +0.000000e+00 
+1.200000e+00 -6.000000e-02 +0.000000e+00 
+1.180000e+00 -4.000000e-02 +0.000000e+00 
+1.200000e+00 -4.000000e-02 +0.000000e+00 
+1.220000e+00 -6.000000e-02 +0.000000e+00 
+1.240000e+00 -6.000000e-02 +0.000000e+00 
+1.220000e+00 -4.000000e-02 +0.000000e+00 
+1.240000e+00 -4.000000e-02 +0.000000e+00 
+1.260000e+00 -6.000000e-02 +0.000000e+00 
+1.280000e+00 -6.000000e-02 +0.000000e+00 
+1.300000e+00 -6.000000e-02 +0.000000e+00 
+1.260000e+00 -4.000000e-02 +0.000000e+00 
+1.280000e+00 -4.000000e-02 +0.000000e+00 
+1.300000e+00 -4.000000e-02 +0.000000e+00 
+1.320000e+00 -6.000000e-02 +0.000000e+00 
+1.340000e+00 -6.000000e-02 +0.000000e+00 
+1.320000e+00 -4.000000e-02 +0.000000e+00 
+1.340000e+00 -4.000000e-02 +0.000000e+00 
+1.360000e+00 -6.000000e-02 +0.000000e+00 
+1.380000e+00 -6.000000e-02 +0.000000e+00 
+1.400000e+00 -6.000000e-02 +0.000000e+00 
+1.360000e+00 -4.000000e-02 +0.000000e+00 
+1.380000e+00 -4.000000e-02 +0.000000e+00 
+1.400000e+00 -4.000000e-02 +0.000000e+00 
+1.420000e+00 -6.000000e-02 +0.000000e+00 
+1.440000e+00 -6.000000e-02 +0.000000e+00 
+1.420000e+00 -4.000000e-02 +0.000000e+00 
+1.440000e+00 -4.000000e-02 +0.000000e+00 
+1.460000e+00 -6.000000e-02 +0.000000e+00 
+1.480000e+00 -6.000000e-02 +0.000000e+00 
+1.460000e+00 -4.000000e-02 +0.000000e+00 
+1.480000e+00 -4.000000e-02 +0.000000e+00 
+1.500000e+00 -6.000000e-02 +0.000000e+00 
+1.520000e+00 -6.000000e-02 +0.000000e+00 
+1.540000e+00 -6.000000e-02 +0.000000e+00 
+1.500000e+00 -4.000000e-02 +0.000000e+00 
+1.520000e+00 -4.000000e-02 +0.000000e+00 
+1.540000e+00 -4.000000e-02 +0.000000e+00 
+1.560000e+00 -6.000000e-02 +0.000000e+00 
+1.580000e+00 -6.000000e-02 +0.000000e+00 
+1.560000e+00 -4.000000e-02 +0.000000e+00 
+1.580000e+00 -4.000000e-02 +0.000000e+00 
+1.600000e+00 -6.000000e-02 +0.000000e+00 
+1.620000e+00 -6.000000e-02 +0.000000e+00 
+1.640000e+00 -6.000000e-02 +0.000000e+00 
+1.600000e+00 -4.000000e-02 +0.000000e+00 
+1.620000e+00 -4.000000e-02 +0.000000e+00 
+1.640000e+00 -4.000000e-02 +0.000000e+00 
+1.660000e+00 -6.000000e-02 +0.000000e+00 
+1.680000e+00 -6.000000e-02 +0.000000e+00 
+1.660000e+00 -4.000000e-02 +0.000000e+00 
+1.680000e+00 -4.000000e-02 +0.000000e+00 
+1.700000e+00 -6.000000e-02 +0.000000e+00 
+1.720000e+00 -6.000000e-02 +0.000000e+00 
+1.700000e+00 -4.000000e-02 +0.000000e+00 
+1.720000e+00 -4.000000e-02 +0.000000e+00 
+1.740000e+00 -6.000000e-02 +0.000000e+00 
+1.760000e+00 -6.000000e-02 +0.000000e+00 
+1.780000e+00 -6.000000e-02 +0.000000e+00 
+1.740000e+00 -4.000000e-02 +0.000000e+00 
+1.760000e+00 -4.000000e-02 +0.000000e+00 
+1.780000e+00 -4.000000e-02 +0.000000e+00 
+1.800000e+00 -6.000000e-02 +0.000000e+00 
+1.820000e+00 -6.000000e-02 +0.000000e+00 
+1.800000e+00 -4.000000e-02 +0.000000e+00 
+1.820000e+00 -4.000000e-02 +0.000000e+00 
+1.840000e+00 -6.000000e-02 +0.000000e+00 
+1.860000e+00 -6.000000e-02 +0.000000e+00 
+1.880000e+00 -6.000000e-02 +0.000000e+00 
+1.840000e+00 -4.000000e-02 +0.000000e+00 
+1.860000e+00 -4.000000e-02 +0.000000e+00 
+1.880000e+00 -4.000000e-02 +0.000000e+00 
+1.900000e+00 -6.000000e-02 +0.000000e+00 
+1.920000e+00 -6.000000e-02 +0.000000e+00 
+1.900000e+00 -4.000000e-02 +0.000000e+00 
+1.920000e+00 -4.000000e-02 +0.000000e+00 
+1.940000e+00 -6.000000e-02 +0.000000e+00 
+1.960000e+00 -6.000000e-02 +0.000000e+00 
+1.940000e+00 -4.000000e-02 +0.000000e+00 
+1.960000e+00 -4.000000e-02 +0.000000e+00 
+1.980000e+00 -6.000000e-02 +0.000000e+00 
+2.000000e+00 -6.000000e-02 +0.000000e+00 
+2.020000e+00 -6.000000e-02 +0.000000e+00 
+1.980000e+00 -4.000000e-02 +0.000000e+00 
+2.000000e+00 -4.000000e-02 +0.000000e+00 
+2.020000e+00 -4.000000e-02 +0.000000e+00 
+2.040000e+00 -6.000000e-02 +0.000000e+00 
+2.060000e+00 -6.000000e-02 +0.000000e+00 
+2.040000e+00 -4.000000e-02 +0.000000e+00 
+2.060000e+00 -4.000000e-02 +0.000000e+00 
+2.080000e+00 -6.000000e-02 +0.000000e+00 
+2.100000e+00 -6.000000e-02 +0.000000e+00 
+2.120000e+00 -6.000000e-02 +0.000000e+00 
+2.080000e+00 -4.000000e-02 +0.000000e+00 
+2.100000e+00 -4.000000e-02 +0.000000e+00 
+2.120000e+00 -4.000000e-02 +0.000000e+00 
+2.140000e+00 -6.000000e-02 +0.000000e+00 
+2.160000e+00 -6.000000e-02 +0.000000e+00 
+2.140000e+00 -4.000000e-02 +0.000000e+00 
+2.160000e+00 -4.000000e-02 +0.000000e+00 
+2.180000e+00 -6.000000e-02 +0.000000e+00 
+2.200000e+00 -6.000000e-02 +0.000000e+00 
+2.180000e+00 -4.000000e-02 +0.000000e+00 
+2.200000e+00 -4.000000e-02 +0.000000e+00 
+2.220000e+00 -6.000000e-02 +0.000000e+00 
+2.240000e+00 -6.000000e-02 +0.000000e+00 
[...]
POINT_DATA 6462 
SCALARS density float 1 
LOOKUP_TABLE default
+1.002302e+03 
+1.002309e+03 
+1.002302e+03 
+1.002311e+03 
+1.002321e+03 
+1.002331e+03 
+1.002326e+03 
+1.002339e+03 
+1.002336e+03 
+1.002334e+03 
+1.002344e+03 
+1.002341e+03 
+1.002327e+03 
+1.002316e+03 
+1.002304e+03 
+1.002332e+03 
+1.002319e+03 
+1.002305e+03 
+1.002294e+03 
+1.002289e+03 
+1.002295e+03 
+1.002289e+03 
+1.002286e+03 
+1.002284e+03 
+1.002279e+03 
+1.002289e+03 
+1.002291e+03 
+1.002287e+03 
+1.002271e+03 
+1.002262e+03 
+1.002277e+03 
+1.002266e+03 
+1.002255e+03 
+1.002250e+03 
+1.002258e+03 
+1.002257e+03 
+1.002246e+03 
+1.002243e+03 
+1.002243e+03 
+1.002254e+03 
+1.002247e+03 
+1.002244e+03 
+1.002249e+03 
+1.002256e+03 
+1.002258e+03 
+1.002263e+03 
+1.002261e+03 
+1.002261e+03 
+1.002260e+03 
+1.002277e+03 
+1.002273e+03 
+1.002264e+03 
+1.002260e+03 
+1.002259e+03 
+1.002268e+03 
+1.002272e+03 
+1.002256e+03 
+1.002250e+03 
+1.002265e+03 
+1.002259e+03 
+1.002245e+03 
+1.002245e+03 
+1.002245e+03 
+1.002245e+03 
+1.002254e+03 
+1.002250e+03 
+1.002248e+03 
+1.002259e+03 
+1.002243e+03 
+1.002265e+03 
+1.002267e+03 
+1.002267e+03 
+1.002261e+03 
+1.002283e+03 
+1.002270e+03 
+1.002263e+03 
+1.002253e+03 
+1.002238e+03 
+1.002261e+03 
+1.002242e+03 
+1.002219e+03 
+1.002200e+03 
+1.002219e+03 
+1.002191e+03 
+1.002185e+03 
+1.002174e+03 
+1.002169e+03 
+1.002184e+03 
+1.002165e+03 
+1.002165e+03 
+1.002167e+03 
+1.002164e+03 
+1.002164e+03 
+1.002170e+03 
+1.002153e+03 
+1.002132e+03 
+1.002164e+03 
+1.002126e+03 
+1.002115e+03 
+1.002115e+03 
+1.002126e+03 
+1.002097e+03 
+1.002103e+03 
+1.002129e+03 
+1.002128e+03 
+1.002103e+03 
+1.002169e+03 
+1.002112e+03 
+1.002069e+03 
+1.002054e+03 
+1.002054e+03 
+1.002056e+03 
+1.002047e+03 
+1.002060e+03 
+1.002055e+03 
+1.002054e+03 
+1.002066e+03 
+1.002068e+03 
+1.002047e+03 
+1.002039e+03 
+1.002030e+03 
+1.002055e+03 
+1.002051e+03 
+1.002041e+03 
+1.002027e+03 
+1.002031e+03 
+1.002029e+03 
+1.002048e+03 
+1.002033e+03 
+1.002028e+03 
+1.002055e+03 
+1.002047e+03 
+1.002018e+03 
+1.002002e+03 
+1.001991e+03 
+1.002039e+03 
+1.002015e+03 
+1.001987e+03 
+1.001996e+03 
+1.002009e+03 
+1.001997e+03 
+1.002034e+03 
+1.002017e+03 
+1.002019e+03 
+1.002016e+03 
+1.002024e+03 
+1.002039e+03 
+1.002025e+03 
+1.002009e+03 
+1.001992e+03 
+1.002024e+03 
+1.002005e+03 
+1.001969e+03 
+1.001950e+03 
+1.001962e+03 
+1.001953e+03 
+1.001929e+03 
+1.001900e+03 
+1.001883e+03 
+1.001944e+03 
+1.001878e+03 
+1.001872e+03 
+1.001872e+03 
+1.001857e+03 
+1.001876e+03 
+1.001841e+03 
+1.001847e+03 
+1.001844e+03 
+1.001842e+03 
+1.001831e+03 
+1.001824e+03 
+1.001854e+03 
+1.001824e+03 
+1.001793e+03 
+1.001827e+03 
+1.001773e+03 
+1.001768e+03 
+1.001753e+03 
+1.001750e+03 
+1.001734e+03 
+1.001745e+03 
+1.001741e+03 
+1.001728e+03 
+1.001726e+03 
+1.001747e+03 
+1.001719e+03 
+1.001708e+03 
+1.001687e+03 
+1.001697e+03 
+1.001692e+03 
+1.001658e+03 
+1.001628e+03 
+1.001608e+03 
+1.001657e+03 
+1.001606e+03 
+1.001628e+03 
+1.001577e+03 
+1.001555e+03 
+1.001572e+03 
+1.001532e+03 
+1.001553e+03 
+1.001563e+03 
+1.001556e+03 
+1.001569e+03 
+1.001576e+03 
+1.001589e+03 
+1.001590e+03 
+1.001583e+03 
+1.001619e+03 
+1.001623e+03 
+1.001578e+03 
+1.001571e+03 
+1.001588e+03 
+1.001581e+03 
+1.001576e+03 
+1.001587e+03 
+1.001585e+03 
+1.001591e+03 
+1.001624e+03 
+1.001635e+03 
+1.001567e+03 
+1.001560e+03 
+1.001580e+03 
+1.001563e+03 
+1.001572e+03 
+1.001587e+03 
+1.001601e+03 
+1.001622e+03 
+1.001600e+03 
+1.001611e+03 
+1.001625e+03 
+1.001631e+03 
+1.001639e+03 
+1.001643e+03 
+1.001644e+03 
+1.001661e+03 
+1.001678e+03 
+1.001691e+03 
+1.001677e+03 
+1.001706e+03 
+1.001724e+03 
+1.001678e+03 
+1.001742e+03 
+1.001759e+03 
+1.001722e+03 
+1.001708e+03 
+1.001727e+03 
+1.001753e+03 
+1.001668e+03 
+1.001607e+03 
+1.001679e+03 
+1.001627e+03 
+1.001547e+03 
+1.001543e+03 
+1.001595e+03 
+1.001494e+03 
+1.001465e+03 
+1.001603e+03 
+1.001635e+03 
+1.001627e+03 
+1.001667e+03 
+1.001621e+03 
+1.001604e+03 
+1.001576e+03 
+1.001534e+03 
+1.001607e+03 
+1.001572e+03 
+1.001554e+03 
+1.001482e+03 
+1.001450e+03 
+1.001462e+03 
+1.001398e+03 
+1.001463e+03 
+1.001487e+03 
+1.001441e+03 
+1.001511e+03 
+1.001495e+03 
+1.001489e+03 
+1.001470e+03 
+1.001494e+03 
+1.001527e+03 
+1.001437e+03 
+1.001471e+03 
+1.001487e+03 
+1.001461e+03 
+1.001494e+03 
+1.001496e+03 
+1.001485e+03 
+1.001468e+03 
+1.001515e+03 
+1.001499e+03 
+1.001437e+03 
+1.001474e+03 
+1.001481e+03 
+1.001485e+03 
+1.001534e+03 
+1.001461e+03 
+1.001449e+03 
+1.001472e+03 
+1.001445e+03 
+1.001464e+03 
+1.001491e+03 
+1.001485e+03 
+1.001453e+03 
+1.001573e+03 
+1.001507e+03 
+1.001471e+03 
+1.001462e+03 
+1.001483e+03 
+1.001485e+03 
+1.001458e+03 
+1.001477e+03 
+1.001483e+03 
+1.001433e+03 
+1.001511e+03 
+1.001532e+03 
+1.001471e+03 
+1.001473e+03 
+1.001474e+03 
+1.001463e+03 
+1.001495e+03 
+1.001483e+03 
+1.001569e+03 
+1.001516e+03 
+1.001458e+03 
+1.001441e+03 
+1.001410e+03 
+1.001443e+03 
+1.001485e+03 
+1.001408e+03 
+1.001399e+03 
+1.001408e+03 
+1.001381e+03 
+1.001394e+03 
+1.001413e+03 
+1.001357e+03 
+1.001314e+03 
+1.001518e+03 
+1.001333e+03 
+1.001312e+03 
+1.001283e+03 
+1.001243e+03 
+1.001320e+03 
+1.001250e+03 
+1.001220e+03 
+1.001222e+03 
+1.001209e+03 
+1.001273e+03 
+1.001214e+03 
+1.001177e+03 
+1.001147e+03 
+1.001284e+03 
+1.001209e+03 
+1.001139e+03 
+1.001146e+03 
+1.001163e+03 
+1.001152e+03 
+1.001234e+03 
+1.001161e+03 
+1.001166e+03 
+1.001142e+03 
+1.001143e+03 
+1.001230e+03 
+1.001194e+03 
+1.001097e+03 
+1.001058e+03 
+1.001089e+03 
+1.001105e+03 
+1.001018e+03 
+1.001007e+03 
+1.001004e+03 
+1.001003e+03 
+1.001004e+03 
+1.001009e+03 
+1.001048e+03 
+1.001032e+03 
+1.000957e+03 
+1.001045e+03 
+1.001073e+03 
+1.001056e+03 
+1.001101e+03 
+1.001053e+03 
+1.001016e+03 
+1.000984e+03 
+1.000984e+03 
+1.000986e+03 
+1.000943e+03 
+1.000945e+03 
+1.000996e+03 
+1.000990e+03 
+1.001035e+03 
+1.000964e+03 
+1.000998e+03 
+1.001023e+03 
+1.000983e+03 
+1.001008e+03 
+1.001053e+03 
+1.001067e+03 
+1.001092e+03 
+1.001068e+03 
+1.001030e+03 
+1.001081e+03 
+1.001106e+03 
+1.001155e+03 
+1.001077e+03 
+1.001074e+03 
+1.001240e+03 
+1.001297e+03 
+1.001282e+03 
+1.001229e+03 
+1.001370e+03 
+1.001213e+03 
+1.001265e+03 
+1.001238e+03 
+1.001242e+03 
+1.001194e+03 
+1.001203e+03 
+1.001176e+03 
+1.001135e+03 
+1.001109e+03 
+1.001162e+03 
+1.001162e+03 
+1.001204e+03 
+1.001096e+03 
+1.001077e+03 
+1.001103e+03 
+1.001271e+03 
+1.001298e+03 
+1.001257e+03 
+1.001326e+03 
+1.001256e+03 
+1.001208e+03 
+1.001177e+03 
+1.001136e+03 
+1.001156e+03 
+1.001102e+03 
+1.001092e+03 
+1.001109e+03 
+1.000960e+03 
+1.000946e+03 
+1.001099e+03 
+1.001032e+03 
+1.001090e+03 
+1.000904e+03 
+1.000960e+03 
+1.000908e+03 
+1.000850e+03 
+1.000829e+03 
+1.000818e+03 
+1.000748e+03 
+1.000809e+03 
+1.000795e+03 
+1.000696e+03 
+1.000739e+03 
+1.000781e+03 
+1.000753e+03 
+1.000748e+03 
+1.000760e+03 
+1.000699e+03 
+1.000678e+03 
+1.000784e+03 
+1.000833e+03 
+1.000758e+03 
+1.000836e+03 
+1.000879e+03 
+1.000930e+03 
+1.000872e+03 
+1.000883e+03 
+1.001008e+03 
+1.001065e+03 
+1.001093e+03 
+1.001033e+03 
+1.001101e+03 
+1.001058e+03 
+1.001130e+03 
+1.001141e+03 
+1.001168e+03 
+1.001136e+03 
+1.001153e+03 
+1.001184e+03 
+1.001117e+03 
+1.001187e+03 
+1.001219e+03 
+1.001294e+03 
+1.001386e+03 
+1.001159e+03 
+1.001263e+03 
+1.001367e+03 
+1.001480e+03 
+1.001554e+03 
+1.001474e+03 
+1.001512e+03 
+1.001621e+03 
+1.001628e+03 
+1.001611e+03 
+1.001673e+03 
+1.001648e+03 
+1.001551e+03 
+1.001648e+03 
+1.001741e+03 
+1.001605e+03 
+1.001746e+03 
+1.001841e+03 
+1.001894e+03 
+1.001885e+03 
+1.001909e+03 
+1.001980e+03 
+1.001962e+03 
+1.001843e+03 
+1.001854e+03 
+1.001831e+03 
+1.001862e+03 
+1.001902e+03 
+1.001953e+03 
+1.001962e+03 
+1.001985e+03 
+1.002027e+03 
+1.002119e+03 
+1.002190e+03 
+1.002062e+03 
+1.002191e+03 
+1.002274e+03 
+1.002222e+03 
+1.002233e+03 
+1.002286e+03 
+1.002269e+03 
+1.002250e+03 
+1.002302e+03 
+1.002386e+03 
+1.002251e+03 
+1.002301e+03 
+1.002391e+03 
+1.002487e+03 
+1.002586e+03 
+1.002501e+03 
+1.002602e+03 
+1.002666e+03 
+1.002715e+03 
+1.002689e+03 
+1.002711e+03 
+1.002747e+03 
+1.002774e+03 
+1.002809e+03 
+1.002726e+03 
+1.002737e+03 
+1.002777e+03 
+1.002842e+03 
+1.002864e+03 
+1.002819e+03 
+1.002843e+03 
+1.002297e+03 
+1.002309e+03 
+1.002281e+03 
+1.002295e+03 
+1.002336e+03 
+1.002360e+03 
+1.002330e+03 
+1.002357e+03 
+1.002359e+03 
+1.002353e+03 
+1.002356e+03 
+1.002353e+03 
+1.002345e+03 
+1.002325e+03 
+1.002305e+03 
+1.002342e+03 
+1.002320e+03 
+1.002294e+03 
+1.002289e+03 
+1.002300e+03 
+1.002286e+03 
+1.002275e+03 
+1.002294e+03 
+1.002303e+03 
+1.002306e+03 
+1.002273e+03 
+1.002294e+03 
+1.002287e+03 
+1.002269e+03 
+1.002290e+03 
+1.002273e+03 
+1.002266e+03 
+1.002262e+03 
+1.002268e+03 
+1.002258e+03 
+1.002247e+03 
+1.002266e+03 
+1.002257e+03 
+1.002238e+03 
+1.002233e+03 
+1.002188e+03 
+1.002286e+03 
+1.002261e+03 
+1.002226e+03 
+1.002303e+03 
+1.002280e+03 
+1.002280e+03 
+1.002246e+03 
+1.002293e+03 
+1.002234e+03 
+1.002279e+03 
+1.002273e+03 
+1.002255e+03 
+1.002231e+03 
+1.002282e+03 
+1.002290e+03 
+1.002252e+03 
+1.002235e+03 
+1.002226e+03 
+1.002284e+03 
+1.002235e+03 
+1.002215e+03 
+1.002215e+03 
+1.002228e+03 
+1.002274e+03 
+1.002234e+03 
+1.002229e+03 
+1.002316e+03 
+1.002283e+03 
+1.002245e+03 
+1.002242e+03 
+1.002199e+03 
+1.002283e+03 
+1.002227e+03 
+1.002147e+03 
+1.002176e+03 
+1.002237e+03 
+1.002171e+03 
+1.002140e+03 
+1.002147e+03 
+1.002186e+03 
+1.002130e+03 
+1.002176e+03 
+1.002121e+03 
+1.002160e+03 
+1.002160e+03 
+1.002166e+03 
+1.002126e+03 
+1.002128e+03 
+1.002105e+03 
+1.002182e+03 
+1.002114e+03 
+1.002013e+03 
+1.002052e+03 
+1.002104e+03 
+1.002138e+03 
+1.002193e+03 
+1.002079e+03 
+1.002241e+03 
+1.002132e+03 
+1.002094e+03 
+1.002132e+03 
+1.002090e+03 
+1.001998e+03 
+1.002019e+03 
+1.002113e+03 
+1.002093e+03 
+1.002091e+03 
+1.002073e+03 
+1.002117e+03 
+1.002058e+03 
+1.002137e+03 
+1.001952e+03 
+1.002055e+03 
+1.002104e+03 
+1.002026e+03 
+1.002136e+03 
+1.001948e+03 
+1.002011e+03 
+1.002109e+03 
+1.002046e+03 
+1.002082e+03 
+1.002100e+03 
+1.002067e+03 
+1.002049e+03 
+1.002096e+03 
+1.002086e+03 
+1.002045e+03 
+1.001977e+03 
+1.002005e+03 
+1.002061e+03 
+1.001984e+03 
+1.002091e+03 
+1.002027e+03 
+1.001982e+03 
+1.002023e+03 
+1.002101e+03 
+1.001975e+03 
+1.001920e+03 
+1.002148e+03 
+1.002091e+03 
+1.001986e+03 
+1.001807e+03 
+1.001923e+03 
+1.001972e+03 
+1.001937e+03 
+1.001886e+03 
+1.001816e+03 
+1.002037e+03 
+1.001758e+03 
+1.001857e+03 
+1.001900e+03 
+1.001844e+03 
+1.001911e+03 
+1.001774e+03 
+1.001830e+03 
+1.001799e+03 
+1.001855e+03 
+1.001791e+03 
+1.001883e+03 
+1.001731e+03 
+1.001689e+03 
+1.001794e+03 
+1.001718e+03 
+1.001724e+03 
+1.001676e+03 
+1.001684e+03 
+1.001800e+03 
+1.001752e+03 
+1.001639e+03 
+1.001646e+03 
+1.001748e+03 
+1.001709e+03 
+1.001680e+03 
+1.001665e+03 
+1.001698e+03 
+1.001693e+03 
+1.001519e+03 
+1.001604e+03 
+1.001687e+03 
+1.001420e+03 
+1.001823e+03 
+1.001650e+03 
+1.001537e+03 
+1.001435e+03 
+1.001531e+03 
+1.001631e+03 
+1.001534e+03 
+1.001558e+03 
+1.001612e+03 
+1.001577e+03 
+1.001651e+03 
+1.001619e+03 
+1.001628e+03 
+1.001693e+03 
+1.001591e+03 
+1.001579e+03 
+1.001569e+03 
+1.001639e+03 
+1.001715e+03 
+1.001665e+03 
+1.001610e+03 
+1.001702e+03 
+1.001780e+03 
+1.001776e+03 
+1.001416e+03 
+1.001477e+03 
+1.001644e+03 
+1.001835e+03 
+1.001587e+03 
+1.001681e+03 
+1.001671e+03 
+1.001839e+03 
+1.001513e+03 
+1.001691e+03 
+1.001669e+03 
+1.001657e+03 
+1.001776e+03 
+1.001668e+03 
+1.001708e+03 
+1.001849e+03 
+1.001771e+03 
+1.001652e+03 
+1.001606e+03 
+1.001806e+03 
+1.001857e+03 
+1.001699e+03 
+1.001697e+03 
+1.001875e+03 
+1.001593e+03 
+1.001773e+03 
+1.001579e+03 
+1.001703e+03 
+1.001762e+03 
+1.001573e+03 
+1.001610e+03 
+1.001553e+03 
+1.001255e+03 
+1.001355e+03 
+1.001595e+03 
+1.001632e+03 
+1.001493e+03 
+1.001895e+03 
+1.001518e+03 
+1.001364e+03 
+1.001277e+03 
+1.001516e+03 
+1.001670e+03 
+1.001568e+03 
+1.001630e+03 
+1.001290e+03 
+1.001723e+03 
+1.001422e+03 
+1.001195e+03 
+1.001377e+03 
+1.001479e+03 
+1.001522e+03 
+1.001575e+03 
+1.001502e+03 
+1.001400e+03 
+1.001392e+03 
+1.001609e+03 
+1.001259e+03 
+1.001514e+03 
+1.001432e+03 
+1.001555e+03 
+1.001468e+03 
+1.001466e+03 
+1.001436e+03 
+1.001551e+03 
+1.001539e+03 
+1.001372e+03 
+1.001484e+03 
+1.001539e+03 
+1.001453e+03 
+1.001811e+03 
+1.001411e+03 
+1.001501e+03 
+1.001259e+03 
+1.001523e+03 
+1.001576e+03 
+1.001581e+03 
+1.001410e+03 
+1.001885e+03 
+1.001381e+03 
+1.001435e+03 
+1.001514e+03 
+1.001501e+03 
+1.001683e+03 
+1.001526e+03 
+1.001378e+03 
+1.001268e+03 
+1.001705e+03 
+1.001511e+03 
+1.001585e+03 
+1.001510e+03 
+1.001258e+03 
+1.001509e+03 
+1.001540e+03 
+1.001921e+03 
+1.001385e+03 
+1.001222e+03 
+1.001517e+03 
+1.001492e+03 
+1.001332e+03 
+1.001757e+03 
+1.001091e+03 
+1.001127e+03 
+1.001688e+03 
+1.001193e+03 
+1.001798e+03 
+1.001554e+03 
+1.001426e+03 
+1.001983e+03 
+1.000829e+03 
+1.001473e+03 
+1.001183e+03 
+1.001340e+03 
+1.001455e+03 
+1.001231e+03 
+1.001373e+03 
+1.001261e+03 
+1.001252e+03 
+1.001344e+03 
+1.001162e+03 
+1.001045e+03 
+1.001440e+03 
+1.001164e+03 
+1.001286e+03 
+1.001449e+03 
+1.001066e+03 
+1.001522e+03 
+1.000784e+03 
+1.001308e+03 
+1.000972e+03 
+1.001485e+03 
+1.001202e+03 
+1.000951e+03 
+1.001139e+03 
+1.000942e+03 
+1.001390e+03 
+1.000925e+03 
+1.000789e+03 
+1.001362e+03 
+1.000683e+03 
+1.001244e+03 
+1.000980e+03 
+1.000792e+03 
+1.001065e+03 
+1.000577e+03 
+1.001267e+03 
+1.001264e+03 
+1.000679e+03 
+1.001099e+03 
+1.001041e+03 
+1.001008e+03 
+1.001047e+03 
+1.000998e+03 
+1.000764e+03 
+1.000933e+03 
+1.000733e+03 
+1.001017e+03 
+1.001029e+03 
+1.001286e+03 
+1.000707e+03 
+1.000959e+03 
+1.001175e+03 
+1.000808e+03 
+1.001311e+03 
+1.000922e+03 
+1.000523e+03 
+1.001269e+03 
+1.000588e+03 
+1.001590e+03 
+1.000985e+03 
+1.000827e+03 
+1.000652e+03 
+1.000952e+03 
+1.001097e+03 
+1.000712e+03 
+1.001217e+03 
+1.001644e+03 
+1.000680e+03 
+1.001230e+03 
+1.000843e+03 
+1.001339e+03 
+1.001063e+03 
+1.000908e+03 
+1.000853e+03 
+1.000928e+03 
+1.000926e+03 
+1.000937e+03 
+1.000969e+03 
+1.000492e+03 
+1.001066e+03 
+1.000727e+03 
+1.001057e+03 
+1.001488e+03 
+1.001202e+03 
+1.001469e+03 
+1.000591e+03 
+1.000893e+03 
+1.000763e+03 
+1.001176e+03 
+1.000993e+03 
+1.001099e+03 
+1.000483e+03 
+1.000527e+03 
+1.000888e+03 
+1.000306e+03 
+1.001556e+03 
+1.000282e+03 
+1.000917e+03 
+1.000185e+03 
+1.000370e+03 
+1.000872e+03 
+1.000419e+03 
+1.000684e+03 
+1.000490e+03 
+1.000397e+03 
+1.000492e+03 
+1.000637e+03 
+1.000454e+03 
+1.000725e+03 
+1.000812e+03 
+1.000565e+03 
+1.000501e+03 
+1.000699e+03 
+1.000543e+03 
+1.000864e+03 
+1.000763e+03 
+1.001142e+03 
+1.000463e+03 
+1.001069e+03 
+1.000588e+03 
+1.001088e+03 
+1.001196e+03 
+1.001336e+03 
+1.000595e+03 
+1.001088e+03 
+1.000779e+03 
+1.001568e+03 
+1.000917e+03 
+1.001164e+03 
+1.000982e+03 
+1.001442e+03 
+1.000945e+03 
+1.001514e+03 
+1.001013e+03 
+1.001265e+03 
+1.000707e+03 
+1.001406e+03 
+1.001145e+03 
+1.001511e+03 
+1.001618e+03 
+1.001807e+03 
+1.001025e+03 
+1.001222e+03 
+1.001721e+03 
+1.002041e+03 
+1.001718e+03 
+1.001246e+03 
+1.001635e+03 
+1.001833e+03 
+1.001662e+03 
+1.001478e+03 
+1.001783e+03 
+1.001988e+03 
+1.001487e+03 
+1.002144e+03 
+1.002146e+03 
+1.002450e+03 
+1.002332e+03 
+1.002301e+03 
+1.001418e+03 
+1.001911e+03 
+1.002400e+03 
+1.001922e+03 
+1.002359e+03 
+1.002292e+03 
+1.001949e+03 
+1.002306e+03 
+1.002031e+03 
+1.002431e+03 
+1.002493e+03 
+1.002420e+03 
+1.002371e+03 
+1.002427e+03 
+1.002220e+03 
+1.002474e+03 
+1.002178e+03 
+1.002303e+03 
+1.002415e+03 
+1.002459e+03 
+1.002634e+03 
+1.002536e+03 
+1.002655e+03 
+1.002696e+03 
+1.002649e+03 
+1.002822e+03 
+1.002694e+03 
+1.002799e+03 
+1.002671e+03 
+1.002604e+03 
+1.002770e+03 
+1.002606e+03 
+1.002732e+03 
+1.002727e+03 
+1.002769e+03 
+1.002785e+03 
+1.002808e+03 
+1.002743e+03 
+1.002755e+03 
+1.002253e+03 
+1.002265e+03 
+1.002211e+03 
+1.002223e+03 
+1.002318e+03 
+1.002290e+03 
+1.002246e+03 
+1.002260e+03 
+1.002292e+03 
+1.002328e+03 
+1.002219e+03 
+1.002278e+03 
+1.002315e+03 
+1.002214e+03 
+1.002192e+03 
+1.002294e+03 
+1.002252e+03 
+1.002228e+03 
+1.002271e+03 
+1.002172e+03 
+1.002253e+03 
+1.002203e+03 
+1.002242e+03 
+1.002180e+03 
+1.002160e+03 
+1.002225e+03 
+1.002231e+03 
+1.002161e+03 
+1.002174e+03 
+1.002099e+03 
+1.002245e+03 
+1.002189e+03 
+1.002243e+03 
+1.002204e+03 
+1.002094e+03 
+1.002112e+03 
+1.002248e+03 
+1.002224e+03 
+1.002162e+03 
+1.002193e+03 
+1.002134e+03 
+1.002113e+03 
+1.002076e+03 
+1.002196e+03 
+1.002121e+03 
+1.002181e+03 
+1.002248e+03 
+1.002087e+03 
+1.002218e+03 
+1.002125e+03 
+1.002180e+03 
+1.002149e+03 
+1.002094e+03 
+1.002109e+03 
+1.002219e+03 
+1.002115e+03 
+1.002188e+03 
+1.002161e+03 
+1.002220e+03 
+1.002092e+03 
+1.002086e+03 
+1.002086e+03 
+1.002155e+03 
+1.002233e+03 
+1.002094e+03 
+1.002160e+03 
+1.002191e+03 
+1.002159e+03 
+1.002083e+03 
+1.002194e+03 
+1.002149e+03 
+1.002078e+03 
+1.002127e+03 
+1.002226e+03 
+1.002167e+03 
+1.002075e+03 
+1.002217e+03 
+1.002095e+03 
+1.002170e+03 
+1.002198e+03 
+1.002095e+03 
+1.002131e+03 
+1.002177e+03 
+1.002063e+03 
+1.002107e+03 
+1.002178e+03 
+1.002115e+03 
+1.002212e+03 
+1.002122e+03 
+1.002051e+03 
+1.002019e+03 
+1.002213e+03 
+1.002125e+03 
+1.002155e+03 
+1.002082e+03 
+1.002031e+03 
+1.001987e+03 
+1.002134e+03 
+1.002059e+03 
+1.002110e+03 
+1.002054e+03 
+1.001957e+03 
+1.002126e+03 
+1.002069e+03 
+1.002032e+03 
+1.002108e+03 
+1.002049e+03 
+1.002104e+03 
+1.002006e+03 
+1.002049e+03 
+1.001990e+03 
+1.002095e+03 
+1.002063e+03 
+1.002108e+03 
+1.002006e+03 
+1.002032e+03 
+1.002055e+03 
+1.001956e+03 
+1.001944e+03 
+1.002008e+03 
+1.002008e+03 
+1.002058e+03 
+1.001954e+03 
+1.002056e+03 
+1.001952e+03 
+1.002021e+03 
+1.002184e+03 
+1.001954e+03 
+1.002036e+03 
+1.002029e+03 
+1.001964e+03 
+1.002024e+03 
+1.001965e+03 
+1.001883e+03 
+1.001976e+03 
+1.001921e+03 
+1.002034e+03 
+1.001991e+03 
+1.001883e+03 
+1.002016e+03 
+1.001931e+03 
+1.001894e+03 
+1.002019e+03 
+1.001976e+03 
+1.002015e+03 
+1.001935e+03 
+1.002077e+03 
+1.001965e+03 
+1.001903e+03 
+1.001885e+03 
+1.002051e+03 
+1.001919e+03 
+1.001941e+03 
+1.001886e+03 
+1.001992e+03 
+1.001989e+03 
+1.001920e+03 
+1.002044e+03 
+1.001976e+03 
+1.001847e+03 
+1.002001e+03 
+1.001987e+03 
+1.001869e+03 
+1.002050e+03 
+1.001897e+03 
+1.001943e+03 
+1.001994e+03 
+1.001869e+03 
+1.001913e+03 
+1.002019e+03 
+1.001887e+03 
+1.001907e+03 
+1.001969e+03 
+1.001858e+03 
+1.001915e+03 
+1.002009e+03 
+1.001872e+03 
+1.001920e+03 
+1.001984e+03 
+1.001861e+03 
+1.001835e+03 
+1.001895e+03 
+1.001824e+03 
+1.001791e+03 
+1.002039e+03 
+1.001882e+03 
+1.001834e+03 
+1.001818e+03 
+1.001866e+03 
+1.001747e+03 
+1.001845e+03 
+1.001818e+03 
+1.001770e+03 
+1.001828e+03 
+1.001914e+03 
+1.001770e+03 
+1.001832e+03 
+1.001762e+03 
+1.001752e+03 
+1.001679e+03 
+1.001731e+03 
+1.001767e+03 
+1.001831e+03 
+1.001641e+03 
+1.001666e+03 
+1.001752e+03 
+1.001674e+03 
+1.001717e+03 
+1.001754e+03 
+1.001561e+03 
+1.001739e+03 
+1.001684e+03 
+1.001636e+03 
+1.001651e+03 
+1.001660e+03 
+1.001556e+03 
+1.001650e+03 
+1.001680e+03 
+1.001614e+03 
+1.001651e+03 
+1.001531e+03 
+1.001685e+03 
+1.001623e+03 
+1.001654e+03 
+1.001545e+03 
+1.001515e+03 
+1.001606e+03 
+1.001593e+03 
+1.001569e+03 
+1.001508e+03 
+1.001496e+03 
+1.001517e+03 
+1.001593e+03 
+1.001479e+03 
+1.001537e+03 
+1.001630e+03 
+1.001529e+03 
+1.001501e+03 
+1.001678e+03 
+1.001529e+03 
+1.001494e+03 
+1.001428e+03 
+1.001530e+03 
+1.001513e+03 
+1.001424e+03 
+1.001508e+03 
+1.001426e+03 
+1.001604e+03 
+1.001442e+03 
+1.001457e+03 
+1.001502e+03 
+1.001614e+03 
+1.001450e+03 
+1.001522e+03 
+1.001414e+03 
+1.001551e+03 
+1.001486e+03 
+1.001552e+03 
+1.001612e+03 
+1.001568e+03 
+1.001584e+03 
+1.001451e+03 
+1.001502e+03 
+1.001525e+03 
+1.001458e+03 
+1.001468e+03 