# vtk DataFile Version 2.0
Unstructured Grid Example
ASCII
DATASET UNSTRUCTURED_GRID
POINTS 6462 float
-6.000000e-02 -6.000000e-02 +0.000000e+00 
-4.000000e-02 -6.000000e-02 +0.000000e+00 
-6.000000e-02 -4.000000e-02 +0.000000e+00 
-4.000000e-02 -4.000000e-02 +0.000000e+00 
-2.000000e-02 -6.000000e-02 +0.000000e+00 
+0.000000e+00 -6.000000e-02 +0.000000e+00 
-2.000000e-02 -4.000000e-02 +0.000000e+00 
+0.000000e+00 -4.000000e-02 +0.000000e+00 
+2.000000e-02 -6.000000e-02 +0.000000e+00 
+4.000000e-02 -6.000000e-02 +0.000000e+00 
+2.000000e-02 -4.000000e-02 +0.000000e+00 
+4.000000e-02 -4.000000e-02 +0.000000e+00 
+6.000000e-02 -6.000000e-02 +0.000000e+00 
+8.000000e-02 -6.000000e-02 +0.000000e+00 
+1.000000e-01 -6.000000e-02 +0.000000e+00 
+6.000000e-02 -4.000000e-02 +0.000000e+00 
+8.000000e-02 -4.000000e-02 +0.000000e+00 
+1.000000e-01 -4.000000e-02 +0.000000e+00 
+1.200000e-01 -6.000000e-02 +0.000000e+00 
+1.400000e-01 -6.000000e-02 +0.000000e+00 
+1.200000e-01 -4.000000e-02 +0.000000e+00 
+1.400000e-01 -4.000000e-02 +0.000000e+00 
+1.600000e-01 -6.000000e-02 +0.000000e+00 
+1.800000e-01 -6.000000e-02 +0.000000e+00 
+2.000000e-01 -6.000000e-02 +0.000000e+00 
+1.600000e-01 -4.000000e-02 +0.000000e+00 
+1.800000e-01 -4.000000e-02 +0.000000e+00 
+2.000000e-01 -4.000000e-02 +0.000000e+00 
+2.200000e-01 -6.000000e-02 +0.000000e+00 
+2.400000e-01 -6.000000e-02 +0.000000e+00 
+2.200000e-01 -4.000000e-02 +0.000000e+00 
+2.400000e-01 -4.000000e-02 +0.000000e+00 
+2.600000e-01 -6.000000e-02 +0.000000e+00 
+2.800000e-01 -6.000000e-02 +0.000000e+00 
+2.600000e-01 -4.000000e-02 +0.000000e+00 
+2.800000e-01 -4.000000e-02 +0.000000e+00 
+3.000000e-01 -6.000000e-02 +0.000000e+00 
+3.200000e-01 -6.000000e-02 +0.000000e+00 
+3.400000e-01 -6.000000e-02 +0.000000e+00 
+3.000000e-01 -4.000000e-02 +0.000000e+00 
+3.200000e-01 -4.000000e-02 +0.000000e+00 
+3.400000e-01 -4.000000e-02 +0.000000e+00 
+3.600000e-01 -6.000000e-02 +0.000000e+00 
+3.800000e-01 -6.000000e-02 +0.000000e+00 
+3.600000e-01 -4.000000e-02 +0.000000e+00 
+3.800000e-01 -4.000000e-02 +0.000000e+00 
+4.000000e-01 -6.000000e-02 +0.000000e+00 
+4.200000e-01 -6.000000e-02 +0.000000e+00 
+4.400000e-01 -6.000000e-02 +0.000000e+00 
+4.000000e-01 -4.000000e-02 +0.000000e+00 
+4.200000e-01 -4.000000e-02 +0.000000e+00 
+4.400000e-01 -4.000000e-02 +0.000000e+00 
+4.600000e-01 -6.000000e-02 +0.000000e+00 
+4.800000e-01 -6.000000e-02 +0.000000e+00 
+4.600000e-01 -4.000000e-02 +0.000000e+00 
+4.800000e-01 -4.000000e-02 +0.000000e+00 
+5.000000e-01 -6.000000e-02 +0.000000e+00 
+5.200000e-01 -6.000000e-02 +0.000000e+00 
+5.000000e-01 -4.000000e-02 +0.000000e+00 
+5.200000e-01 -4.000000e-02 +0.000000e+00 
+5.400000e-01 -6.000000e-02 +0.000000e+00 
+5.600000e-01 -6.000000e-02 +0.000000e+00 
+5.800000e-01 -6.000000e-02 +0.000000e+00 
+5.400000e-01 -4.000000e-02 +0.000000e+00 
+5.600000e-01 -4.000000e-02 +0.000000e+00 
+5.800000e-01 -4.000000e-02 +0.000000e+00 
+6.000000e-01 -6.000000e-02 +0.000000e+00 
+6.200000e-01 -6.000000e-02 +0.000000e+00 
+6.000000e-01 -4.000000e-02 +0.000000e+00 
+6.200000e-01 -4.000000e-02 +0.000000e+00 
+6.400000e-01 -6.000000e-02 +0.000000e+00 
+6.600000e-01 -6.000000e-02 +0.000000e+00 
+6.800000e-01 -6.000000e-02 +0.000000e+00 
+6.400000e-01 -4.000000e-02 +0.000000e+00 
+6.600000e-01 -4.000000e-02 +0.000000e+00 
+6.800000e-01 -4.000000e-02 +0.000000e+00 
+7.000000e-01 -6.000000e-02 +0.000000e+00 
+7.200000e-01 -6.000000e-02 +0.000000e+00 
+7.000000e-01 -4.000000e-02 +0.000000e+00 
+7.200000e-01 -4.000000e-02 +0.000000e+00 
+7.400000e-01 -6.000000e-02 +0.000000e+00 
+7.600000e-01 -6.000000e-02 +0.000000e+00 
+7.400000e-01 -4.000000e-02 +0.000000e+00 
+7.600000e-01 -4.000000e-02 +0.000000e+00 
+7.800000e-01 -6.000000e-02 +0.000000e+00 
+8.000000e-01 -6.000000e-02 +0.000000e+00 
+8.200000e-01 -6.000000e-02 +0.000000e+00 
+7.800000e-01 -4.000000e-02 +0.000000e+00 
+8.000000e-01 -4.000000e-02 +0.000000e+00 
+8.200000e-01 -4.000000e-02 +0.000000e+00 
+8.400000e-01 -6.000000e-02 +0.000000e+00 
+8.600000e-01 -6.000000e-02 +0.000000e+00 
+8.400000e-01 -4.000000e-02 +0.000000e+00 
+8.600000e-01 -4.000000e-02 +0.000000e+00 
+8.800000e-01 -6.000000e-02 +0.000000e+00 
+9.000000e-01 -6.000000e-02 +0.000000e+00 
+8.800000e-01 -4.000000e-02 +0.000000e+00 
+9.000000e-01 -4.000000e-02 +0.000000e+00 
+9.200000e-01 -6.000000e-02 +0.000000e+00 
+9.400000e-01 -6.000000e-02 +0.000000e+00 
+9.600000e-01 -6.000000e-02 +0.000000e+00 
+9.200000e-01 -4.000000e-02 +0.000000e+00 
+9.400000e-01 -4.000000e-02 +0.000000e+00 
+9.600000e-01 -4.000000e-02 +0.000000e+00 
+9.800000e-01 -6.000000e-02 +0.000000e+00 
+1.000000e+00 -6.000000e-02 +0.000000e+00 
+9.800000e-01 -4.000000e-02 +0.000000e+00 
+1.000000e+00 -4.000000e-02 +0.000000e+00 
+1.020000e+00 -6.000000e-02 +0.000000e+00 
+1.040000e+00 -6.000000e-02 +0.000000e+00 
+1.060000e+00 -6.000000e-02 +0.000000e+00 
+1.020000e+00 -4.000000e-02 +0.000000e+00 
+1.040000e+00 -4.000000e-02 +0.000000e+00 
+1.060000e+00 -4.000000e-02 +0.000000e+00 
+1.080000e+00 -6.000000e-02 +0.000000e+00 
+1.100000e+00 -6.000000e-02 +0.000000e+00 
+1.080000e+00 -4.000000e-02 +0.000000e+00 
+1.100000e+00 -4.000000e-02 +0.000000e+00 
+1.120000e+00 -6.000000e-02 +0.000000e+00 
+1.140000e+00 -6.000000e-02 +0.000000e+00 
+1.160000e+00 -6.000000e-02 +0.000000e+00 
+1.120000e+00 -4.000000e-02 +0.000000e+00 
+1.140000e+00 -4.000000e-02 +0.000000e+00 
+1.160000e+00 -4.000000e-02 +0.000000e+00 
+1.180000e+00 -6.000000e-02 +0.000000e+00 
+1.200000e+00 -6.000000e-02 +0.000000e+00 
+1.180000e+00 -4.000000e-02 +0.000000e+00 
+1.200000e+00 -4.000000e-02 +0.000000e+00 
+1.220000e+00 -6.000000e-02 +0.000000e+00 
+1.240000e+00 -6.000000e-02 +0.000000e+00 
+1.220000e+00 -4.000000e-02 +0.000000e+00 
+1.240000e+00 -4.000000e-02 +0.000000e+00 
+1.260000e+00 -6.000000e-02 +0.000000e+00 
+1.280000e+00 -6.000000e-02 +0.000000e+00 
+1.300000e+00 -6.000000e-02 +0.000000e+00 
+1.260000e+00 -4.000000e-02 +0.000000e+00 
+1.280000e+00 -4.000000e-02 +0.000000e+00 
+1.300000e+00 -4.000000e-02 +0.000000e+00 
+1.320000e+00 -6.000000e-02 +0.000000e+00 
+1.340000e+00 -6.000000e-02 +0.000000e+00 
+1.320000e+00 -4.000000e-02 +0.000000e+00 
+1.340000e+00 -4.000000e-02 +0.000000e+00 
+1.360000e+00 -6.000000e-02 +0.000000e+00 
+1.380000e+00 -6.000000e-02 +0.000000e+00 
+1.400000e+00 -6.000000e-02 +0.000000e+00 
+1.360000e+00 -4.000000e-02 +0.000000e+00 
+1.380000e+00 -4.000000e-02 +0.000000e+00 
+1.400000e+00 -4.000000e-02 +0.000000e+00 
+1.420000e+00 -6.000000e-02 +0.000000e+00 
+1.440000e+00 -6.000000e-02 +0.000000e+00 
+1.420000e+00 -4.000000e-02 +0.000000e+00 
+1.440000e+00 -4.000000e-02 +0.000000e+00 
+1.460000e+00 -6.000000e-02 +0.000000e+00 
+1.480000e+00 -6.000000e-02 +0.000000e+00 
+1.460000e+00 -4.000000e-02 +0.000000e+00 
+1.480000e+00 -4.000000e-02 +0.000000e+00 
+1.500000e+00 -6.000000e-02 +0.000000e+00 
+1.520000e+00 -6.000000e-02 +0.000000e+00 
+1.540000e+00 -6.000000e-02 +0.000000e+00 
+1.500000e+00 -4.000000e-02 +0.000000e+00 
+1.520000e+00 -4.000000e-02 +0.000000e+00 
+1.540000e+00 -4.000000e-02 +0.000000e+00 
+1.560000e+00 -6.000000e-02 +0.000000e+00 
+1.580000e+00 -6.000000e-02 +0.000000e+00 
+1.560000e+00 -4.000000e-02 +0.000000e+00 
+1.580000e+00 -4.000000e-02 +0.000000e+00 
+1.600000e+00 -6.000000e-02 +0.000000e+00 
+1.620000e+00 -6.000000e-02 +0.000000e+00 
+1.640000e+00 -6.000000e-02 +0.000000e+00 
+1.600000e+00 -4.000000e-02 +0.000000e+00 
+1.620000e+00 -4.000000e-02 +0.000000e+00 
+1.640000e+00 -4.000000e-02 +0.000000e+00 
+1.660000e+00 -6.000000e-02 +0.000000e+00 
+1.680000e+00 -6.000000e-02 +0.000000e+00 
+1.660000e+00 -4.000000e-02 +0.000000e+00 
+1.680000e+00 -4.000000e-02 +0.000000e+00 
+1.700000e+00 -6.000000e-02 +0.000000e+00 
+1.720000e+00 -6.000000e-02 +0.000000e+00 
+1.700000e+00 -4.000000e-02 +0.000000e+00 
+1.720000e+00 -4.000000e-02 +0.000000e+00 
+1.740000e+00 -6.000000e-02 +0.000000e+00 
+1.760000e+00 -6.000000e-02 +0.000000e+00 
+1.780000e+00 -6.000000e-02 +0.000000e+00 
+1.740000e+00 -4.000000e-02 +0.000000e+00 
+1.760000e+00 -4.000000e-02 +0.000000e+00 
+1.780000e+00 -4.000000e-02 +0.000000e+00 
+1.800000e+00 -6.000000e-02 +0.000000e+00 
+1.820000e+00 -6.000000e-02 +0.000000e+00 
+1.800000e+00 -4.000000e-02 +0.000000e+00 
+1.820000e+00 -4.000000e-02 +0.000000e+00 
+1.840000e+00 -6.000000e-02 +0.000000e+00 
+1.860000e+00 -6.000000e-02 +0.000000e+00 
+1.880000e+00 -6.000000e-02 +0.000000e+00 
+1.840000e+00 -4.000000e-02 +0.000000e+00 
+1.860000e+00 -4.000000e-02 +0.000000e+00 
+1.880000e+00 -4.000000e-02 +0.000000e+00 
+1.900000e+00 -6.000000e-02 +0.000000e+00 
+1.920000e+00 -6.000000e-02 +0.000000e+00 
+1.900000e+00 -4.000000e-02 +0.000000e+00 
+1.920000e+00 -4.000000e-02 +0.000000e+00 
+1.940000e+00 -6.000000e-02 +0.000000e+00 
+1.960000e+00 -6.000000e-02 +0.000000e+00 
+1.940000e+00 -4.000000e-02 +0.000000e+00 
+1.960000e+00 -4.000000e-02 +0.000000e+00 
+1.980000e+00 -6.000000e-02 +0.000000e+00 
+2.000000e+00 -6.000000e-02 +0.000000e+00 
+2.020000e+00 -6.000000e-02 +0.000000e+00 
+1.980000e+00 -4.000000e-02 +0.000000e+00 
+2.000000e+00 -4.000000e-02 +0.000000e+00 
+2.020000e+00 -4.000000e-02 +0.000000e+00 
+2.040000e+00 -6.000000e-02 +0.000000e+00 
+2.060000e+00 -6.000000e-02 +0.000000e+00 
+2.040000e+00 -4.000000e-02 +0.000000e+00 
+2.060000e+00 -4.000000e-02 +0.000000e+00 
+2.080000e+00 -6.000000e-02 +0.000000e+00 
+2.100000e+00 -6.000000e-02 +0.000000e+00 
+2.120000e+00 -6.000000e-02 +0.000000e+00 
+2.080000e+00 -4.000000e-02 +0.000000e+00 
+2.100000e+00 -4.000000e-02 +0.000000e+00 
+2.120000e+00 -4.000000e-02 +0.000000e+00 
+2.140000e+00 -6.000000e-02 +0.000000e+00 
+2.160000e+00 -6.000000e-02 +0.000000e+00 
+2.140000e+00 -4.000000e-02 +0.000000e+00 
+2.160000e+00 -4.000000e-02 +0.000000e+00 
+2.180000e+00 -6.000000e-02 +0.000000e+00 
+2.200000e+00 -6.000000e-02 +0.000000e+00 
+2.180000e+00 -4.000000e-02 +0.000000e+00 
+2.200000e+00 -4.000000e-02 +0.000000e+00 
+2.220000e+00 -6.000000e-02 +0.000000e+00 
+2.240000e+00 -6.000000e-02 +0.000000e+00 
[...]
POINT_DATA 6462 
SCALARS density float 1 
LOOKUP_TABLE default
+1.002514e+03 
+1.002528e+03 
+1.002520e+03 
+1.002537e+03 
+1.002549e+03 
+1.002570e+03 
+1.002566e+03 
+1.002595e+03 
+1.002586e+03 
+1.002595e+03 
+1.002612e+03 
+1.002619e+03 
+1.002597e+03 
+1.002594e+03 
+1.002588e+03 
+1.002619e+03 
+1.002615e+03 
+1.002607e+03 
+1.002581e+03 
+1.002574e+03 
+1.002598e+03 
+1.002589e+03 
+1.002570e+03 
+1.002568e+03 
+1.002567e+03 
+1.002583e+03 
+1.002580e+03 
+1.002584e+03 
+1.002564e+03 
+1.002560e+03 
+1.002580e+03 
+1.002566e+03 
+1.002560e+03 
+1.002563e+03 
+1.002570e+03 
+1.002573e+03 
+1.002567e+03 
+1.002574e+03 
+1.002583e+03 
+1.002573e+03 
+1.002581e+03 
+1.002593e+03 
+1.002590e+03 
+1.002590e+03 
+1.002604e+03 
+1.002608e+03 
+1.002582e+03 
+1.002579e+03 
+1.002582e+03 
+1.002582e+03 
+1.002580e+03 
+1.002583e+03 
+1.002588e+03 
+1.002594e+03 
+1.002595e+03 
+1.002603e+03 
+1.002597e+03 
+1.002598e+03 
+1.002601e+03 
+1.002612e+03 
+1.002594e+03 
+1.002589e+03 
+1.002583e+03 
+1.002597e+03 
+1.002592e+03 
+1.002597e+03 
+1.002570e+03 
+1.002554e+03 
+1.002580e+03 
+1.002541e+03 
+1.002551e+03 
+1.002558e+03 
+1.002561e+03 
+1.002547e+03 
+1.002561e+03 
+1.002584e+03 
+1.002553e+03 
+1.002549e+03 
+1.002543e+03 
+1.002548e+03 
+1.002549e+03 
+1.002535e+03 
+1.002560e+03 
+1.002563e+03 
+1.002506e+03 
+1.002492e+03 
+1.002488e+03 
+1.002479e+03 
+1.002483e+03 
+1.002497e+03 
+1.002478e+03 
+1.002463e+03 
+1.002482e+03 
+1.002461e+03 
+1.002447e+03 
+1.002430e+03 
+1.002449e+03 
+1.002438e+03 
+1.002408e+03 
+1.002395e+03 
+1.002390e+03 
+1.002396e+03 
+1.002390e+03 
+1.002394e+03 
+1.002384e+03 
+1.002379e+03 
+1.002380e+03 
+1.002386e+03 
+1.002372e+03 
+1.002365e+03 
+1.002355e+03 
+1.002375e+03 
+1.002365e+03 
+1.002380e+03 
+1.002336e+03 
+1.002331e+03 
+1.002319e+03 
+1.002325e+03 
+1.002331e+03 
+1.002321e+03 
+1.002302e+03 
+1.002351e+03 
+1.002331e+03 
+1.002315e+03 
+1.002277e+03 
+1.002254e+03 
+1.002282e+03 
+1.002250e+03 
+1.002242e+03 
+1.002234e+03 
+1.002249e+03 
+1.002249e+03 
+1.002225e+03 
+1.002224e+03 
+1.002230e+03 
+1.002226e+03 
+1.002236e+03 
+1.002228e+03 
+1.002240e+03 
+1.002233e+03 
+1.002278e+03 
+1.002247e+03 
+1.002226e+03 
+1.002232e+03 
+1.002245e+03 
+1.002220e+03 
+1.002236e+03 
+1.002266e+03 
+1.002250e+03 
+1.002247e+03 
+1.002266e+03 
+1.002248e+03 
+1.002244e+03 
+1.002231e+03 
+1.002267e+03 
+1.002232e+03 
+1.002221e+03 
+1.002219e+03 
+1.002212e+03 
+1.002211e+03 
+1.002227e+03 
+1.002223e+03 
+1.002193e+03 
+1.002168e+03 
+1.002197e+03 
+1.002165e+03 
+1.002147e+03 
+1.002132e+03 
+1.002122e+03 
+1.002135e+03 
+1.002125e+03 
+1.002113e+03 
+1.002105e+03 
+1.002070e+03 
+1.002120e+03 
+1.002053e+03 
+1.002040e+03 
+1.002025e+03 
+1.002009e+03 
+1.002010e+03 
+1.002020e+03 
+1.002012e+03 
+1.001998e+03 
+1.002005e+03 
+1.002013e+03 
+1.001992e+03 
+1.001979e+03 
+1.001962e+03 
+1.001968e+03 
+1.001932e+03 
+1.001950e+03 
+1.001926e+03 
+1.001902e+03 
+1.001960e+03 
+1.001900e+03 
+1.001893e+03 
+1.001877e+03 
+1.001851e+03 
+1.001865e+03 
+1.001834e+03 
+1.001827e+03 
+1.001806e+03 
+1.001809e+03 
+1.001820e+03 
+1.001780e+03 
+1.001783e+03 
+1.001812e+03 
+1.001741e+03 
+1.001733e+03 
+1.001855e+03 
+1.001811e+03 
+1.001792e+03 
+1.001812e+03 
+1.001789e+03 
+1.001781e+03 
+1.001787e+03 
+1.001792e+03 
+1.001756e+03 
+1.001785e+03 
+1.001825e+03 
+1.001785e+03 
+1.001795e+03 
+1.001753e+03 
+1.001806e+03 
+1.001808e+03 
+1.001813e+03 
+1.001814e+03 
+1.001813e+03 
+1.001813e+03 
+1.001798e+03 
+1.001784e+03 
+1.001842e+03 
+1.001788e+03 
+1.001776e+03 
+1.001770e+03 
+1.001748e+03 
+1.001765e+03 
+1.001731e+03 
+1.001714e+03 
+1.001651e+03 
+1.001613e+03 
+1.001743e+03 
+1.001580e+03 
+1.001568e+03 
+1.001598e+03 
+1.001582e+03 
+1.001552e+03 
+1.001576e+03 
+1.001540e+03 
+1.001476e+03 
+1.001517e+03 
+1.001472e+03 
+1.001411e+03 
+1.001381e+03 
+1.001364e+03 
+1.001339e+03 
+1.001344e+03 
+1.001363e+03 
+1.001332e+03 
+1.001296e+03 
+1.001315e+03 
+1.001273e+03 
+1.001278e+03 
+1.001291e+03 
+1.001317e+03 
+1.001225e+03 
+1.001264e+03 
+1.001364e+03 
+1.001308e+03 
+1.001282e+03 
+1.001316e+03 
+1.001261e+03 
+1.001275e+03 
+1.001279e+03 
+1.001268e+03 
+1.001322e+03 
+1.001261e+03 
+1.001237e+03 
+1.001202e+03 
+1.001263e+03 
+1.001268e+03 
+1.001214e+03 
+1.001187e+03 
+1.001211e+03 
+1.001161e+03 
+1.001230e+03 
+1.001248e+03 
+1.001262e+03 
+1.001280e+03 
+1.001313e+03 
+1.001285e+03 
+1.001302e+03 
+1.001294e+03 
+1.001281e+03 
+1.001380e+03 
+1.001306e+03 
+1.001258e+03 
+1.001240e+03 
+1.001299e+03 
+1.001245e+03 
+1.001216e+03 
+1.001182e+03 
+1.001170e+03 
+1.001272e+03 
+1.001166e+03 
+1.001174e+03 
+1.001171e+03 
+1.001197e+03 
+1.001147e+03 
+1.001189e+03 
+1.001225e+03 
+1.001237e+03 
+1.001241e+03 
+1.001233e+03 
+1.001233e+03 
+1.001237e+03 
+1.001240e+03 
+1.001249e+03 
+1.001217e+03 
+1.001243e+03 
+1.001265e+03 
+1.001278e+03 
+1.001303e+03 
+1.001238e+03 
+1.001306e+03 
+1.001298e+03 
+1.001259e+03 
+1.001385e+03 
+1.001353e+03 
+1.001288e+03 
+1.001227e+03 
+1.001251e+03 
+1.001194e+03 
+1.001258e+03 
+1.001297e+03 
+1.001357e+03 
+1.001353e+03 
+1.001288e+03 
+1.001490e+03 
+1.001362e+03 
+1.001348e+03 
+1.001335e+03 
+1.001408e+03 
+1.001360e+03 
+1.001321e+03 
+1.001273e+03 
+1.001420e+03 
+1.001307e+03 
+1.001220e+03 
+1.001195e+03 
+1.001195e+03 
+1.001228e+03 
+1.001211e+03 
+1.001200e+03 
+1.001215e+03 
+1.001230e+03 
+1.001245e+03 
+1.001276e+03 
+1.001237e+03 
+1.001255e+03 
+1.001292e+03 
+1.001229e+03 
+1.001218e+03 
+1.001368e+03 
+1.001284e+03 
+1.001318e+03 
+1.001193e+03 
+1.001344e+03 
+1.001338e+03 
+1.001365e+03 
+1.001289e+03 
+1.001336e+03 
+1.001379e+03 
+1.001374e+03 
+1.001354e+03 
+1.001363e+03 
+1.001330e+03 
+1.001350e+03 
+1.001301e+03 
+1.001210e+03 
+1.001293e+03 
+1.001177e+03 
+1.001102e+03 
+1.000990e+03 
+1.000876e+03 
+1.001077e+03 
+1.000984e+03 
+1.000761e+03 
+1.000817e+03 
+1.000794e+03 
+1.000750e+03 
+1.000719e+03 
+1.000784e+03 
+1.000797e+03 
+1.000705e+03 
+1.000715e+03 
+1.000800e+03 
+1.000779e+03 
+1.000768e+03 
+1.000775e+03 
+1.000675e+03 
+1.000739e+03 
+1.000739e+03 
+1.000698e+03 
+1.000693e+03 
+1.000590e+03 
+1.000710e+03 
+1.000748e+03 
+1.000789e+03 
+1.000666e+03 
+1.000709e+03 
+1.000799e+03 
+1.000806e+03 
+1.000815e+03 
+1.000793e+03 
+1.000778e+03 
+1.000830e+03 
+1.000855e+03 
+1.000814e+03 
+1.000788e+03 
+1.000903e+03 
+1.000947e+03 
+1.000957e+03 
+1.000855e+03 
+1.000951e+03 
+1.000910e+03 
+1.000967e+03 
+1.001009e+03 
+1.000878e+03 
+1.000887e+03 
+1.001089e+03 
+1.001125e+03 
+1.001113e+03 
+1.001016e+03 
+1.001183e+03 
+1.001229e+03 
+1.001238e+03 
+1.001127e+03 
+1.001235e+03 
+1.001177e+03 
+1.001254e+03 
+1.001209e+03 
+1.001317e+03 
+1.001249e+03 
+1.001151e+03 
+1.001142e+03 
+1.001096e+03 
+1.001047e+03 
+1.001219e+03 
+1.001076e+03 
+1.001066e+03 
+1.001107e+03 
+1.000942e+03 
+1.001169e+03 
+1.001080e+03 
+1.000993e+03 
+1.000875e+03 
+1.001113e+03 
+1.000998e+03 
+1.000711e+03 
+1.000914e+03 
+1.001104e+03 
+1.000679e+03 
+1.001206e+03 
+1.001209e+03 
+1.001253e+03 
+1.001230e+03 
+1.001203e+03 
+1.001270e+03 
+1.001204e+03 
+1.001149e+03 
+1.001336e+03 
+1.001146e+03 
+1.001072e+03 
+1.001108e+03 
+1.001121e+03 
+1.001016e+03 
+1.001069e+03 
+1.001124e+03 
+1.001085e+03 
+1.001135e+03 
+1.001069e+03 
+1.001034e+03 
+1.001027e+03 
+1.001092e+03 
+1.000993e+03 
+1.000938e+03 
+1.001106e+03 
+1.001158e+03 
+1.001241e+03 
+1.001143e+03 
+1.001280e+03 
+1.001315e+03 
+1.001410e+03 
+1.001553e+03 
+1.001287e+03 
+1.001341e+03 
+1.001533e+03 
+1.001691e+03 
+1.001796e+03 
+1.001693e+03 
+1.001802e+03 
+1.001867e+03 
+1.001950e+03 
+1.002068e+03 
+1.001830e+03 
+1.001851e+03 
+1.002099e+03 
+1.002149e+03 
+1.002223e+03 
+1.002140e+03 
+1.002190e+03 
+1.002342e+03 
+1.002560e+03 
+1.002258e+03 
+1.002523e+03 
+1.002825e+03 
+1.002999e+03 
+1.003045e+03 
+1.002942e+03 
+1.003181e+03 
+1.003142e+03 
+1.003049e+03 
+1.003119e+03 
+1.003010e+03 
+1.003163e+03 
+1.003208e+03 
+1.003315e+03 
+1.003482e+03 
+1.003260e+03 
+1.003306e+03 
+1.003471e+03 
+1.003713e+03 
+1.003944e+03 
+1.003780e+03 
+1.004091e+03 
+1.004114e+03 
+1.004196e+03 
+1.004306e+03 
+1.004426e+03 
+1.004169e+03 
+1.004022e+03 
+1.003783e+03 
+1.004452e+03 
+1.004309e+03 
+1.004010e+03 
+1.003544e+03 
+1.003379e+03 
+1.003707e+03 
+1.003523e+03 
+1.002523e+03 
+1.002549e+03 
+1.002518e+03 
+1.002550e+03 
+1.002604e+03 
+1.002654e+03 
+1.002631e+03 
+1.002673e+03 
+1.002667e+03 
+1.002668e+03 
+1.002670e+03 
+1.002673e+03 
+1.002664e+03 
+1.002657e+03 
+1.002645e+03 
+1.002663e+03 
+1.002649e+03 
+1.002629e+03 
+1.002616e+03 
+1.002634e+03 
+1.002618e+03 
+1.002603e+03 
+1.002611e+03 
+1.002606e+03 
+1.002616e+03 
+1.002583e+03 
+1.002602e+03 
+1.002615e+03 
+1.002556e+03 
+1.002589e+03 
+1.002555e+03 
+1.002579e+03 
+1.002594e+03 
+1.002565e+03 
+1.002583e+03 
+1.002582e+03 
+1.002582e+03 
+1.002602e+03 
+1.002601e+03 
+1.002564e+03 
+1.002609e+03 
+1.002676e+03 
+1.002635e+03 
+1.002590e+03 
+1.002583e+03 
+1.002548e+03 
+1.002582e+03 
+1.002600e+03 
+1.002605e+03 
+1.002585e+03 
+1.002589e+03 
+1.002622e+03 
+1.002590e+03 
+1.002609e+03 
+1.002644e+03 
+1.002563e+03 
+1.002618e+03 
+1.002614e+03 
+1.002612e+03 
+1.002600e+03 
+1.002615e+03 
+1.002574e+03 
+1.002585e+03 
+1.002613e+03 
+1.002485e+03 
+1.002550e+03 
+1.002620e+03 
+1.002566e+03 
+1.002534e+03 
+1.002702e+03 
+1.002509e+03 
+1.002539e+03 
+1.002479e+03 
+1.002551e+03 
+1.002559e+03 
+1.002560e+03 
+1.002467e+03 
+1.002572e+03 
+1.002693e+03 
+1.002524e+03 
+1.002487e+03 
+1.002366e+03 
+1.002489e+03 
+1.002535e+03 
+1.002497e+03 
+1.002436e+03 
+1.002472e+03 
+1.002456e+03 
+1.002380e+03 
+1.002427e+03 
+1.002420e+03 
+1.002517e+03 
+1.002440e+03 
+1.002362e+03 
+1.002359e+03 
+1.002354e+03 
+1.002419e+03 
+1.002308e+03 
+1.002377e+03 
+1.002340e+03 
+1.002426e+03 
+1.002352e+03 
+1.002413e+03 
+1.002398e+03 
+1.002353e+03 
+1.002471e+03 
+1.002411e+03 
+1.002345e+03 
+1.002200e+03 
+1.002379e+03 
+1.002334e+03 
+1.002251e+03 
+1.002413e+03 
+1.002312e+03 
+1.002350e+03 
+1.002296e+03 
+1.002242e+03 
+1.002273e+03 
+1.002239e+03 
+1.002209e+03 
+1.002275e+03 
+1.002243e+03 
+1.002349e+03 
+1.002207e+03 
+1.002213e+03 
+1.002175e+03 
+1.002317e+03 
+1.002163e+03 
+1.002305e+03 
+1.002309e+03 
+1.002427e+03 
+1.002218e+03 
+1.002224e+03 
+1.002203e+03 
+1.002335e+03 
+1.002210e+03 
+1.002226e+03 
+1.002295e+03 
+1.002137e+03 
+1.002294e+03 
+1.002357e+03 
+1.002182e+03 
+1.002237e+03 
+1.002261e+03 
+1.002354e+03 
+1.002218e+03 
+1.002172e+03 
+1.002124e+03 
+1.002185e+03 
+1.002231e+03 
+1.002232e+03 
+1.002171e+03 
+1.002134e+03 
+1.002220e+03 
+1.002140e+03 
+1.002011e+03 
+1.002226e+03 
+1.002114e+03 
+1.002105e+03 
+1.002075e+03 
+1.002063e+03 
+1.002106e+03 
+1.002244e+03 
+1.001911e+03 
+1.001803e+03 
+1.002058e+03 
+1.001982e+03 
+1.001948e+03 
+1.001795e+03 
+1.002084e+03 
+1.002031e+03 
+1.001993e+03 
+1.001976e+03 
+1.001833e+03 
+1.001992e+03 
+1.001902e+03 
+1.001985e+03 
+1.001800e+03 
+1.001844e+03 
+1.001829e+03 
+1.002081e+03 
+1.001769e+03 
+1.001922e+03 
+1.001782e+03 
+1.001809e+03 
+1.001802e+03 
+1.001854e+03 
+1.001860e+03 
+1.001729e+03 
+1.001724e+03 
+1.001915e+03 
+1.001692e+03 
+1.001896e+03 
+1.001654e+03 
+1.001571e+03 
+1.002069e+03 
+1.001812e+03 
+1.001700e+03 
+1.001726e+03 
+1.001765e+03 
+1.001720e+03 
+1.001923e+03 
+1.001748e+03 
+1.001778e+03 
+1.001913e+03 
+1.001443e+03 
+1.001859e+03 
+1.001561e+03 
+1.001847e+03 
+1.001506e+03 
+1.001901e+03 
+1.001896e+03 
+1.001744e+03 
+1.001671e+03 
+1.001724e+03 
+1.001953e+03 
+1.001612e+03 
+1.001806e+03 
+1.001663e+03 
+1.001868e+03 
+1.001558e+03 
+1.001762e+03 
+1.001723e+03 
+1.001593e+03 
+1.002068e+03 
+1.001223e+03 
+1.001575e+03 
+1.001618e+03 
+1.001421e+03 
+1.001457e+03 
+1.001628e+03 
+1.001636e+03 
+1.001454e+03 
+1.001509e+03 
+1.001273e+03 
+1.001264e+03 
+1.001524e+03 
+1.001225e+03 
+1.001016e+03 
+1.001395e+03 
+1.001428e+03 
+1.001250e+03 
+1.001352e+03 
+1.001269e+03 
+1.001131e+03 
+1.001136e+03 
+1.001412e+03 
+1.001290e+03 
+1.001136e+03 
+1.001461e+03 
+1.001168e+03 
+1.001264e+03 
+1.001353e+03 
+1.001244e+03 
+1.001411e+03 
+1.001149e+03 
+1.001595e+03 
+1.001162e+03 
+1.001068e+03 
+1.001050e+03 
+1.001517e+03 
+1.001121e+03 
+1.001336e+03 
+1.001190e+03 
+1.001180e+03 
+1.001280e+03 
+1.001462e+03 
+1.001347e+03 
+1.001521e+03 
+1.001183e+03 
+1.001405e+03 
+1.001220e+03 
+1.001286e+03 
+1.001524e+03 
+1.001349e+03 
+1.001388e+03 
+1.001314e+03 
+1.001296e+03 
+1.001365e+03 
+1.001109e+03 
+1.001208e+03 
+1.001171e+03 
+1.001488e+03 
+1.000849e+03 
+1.001440e+03 
+1.001134e+03 
+1.001159e+03 
+1.000904e+03 
+1.001267e+03 
+1.001060e+03 
+1.001413e+03 
+1.000847e+03 
+1.001320e+03 
+1.001081e+03 
+1.001348e+03 
+1.001358e+03 
+1.001227e+03 
+1.001157e+03 
+1.001527e+03 
+1.001106e+03 
+1.001403e+03 
+1.001065e+03 
+1.001557e+03 
+1.001759e+03 
+1.001188e+03 
+1.001567e+03 
+1.001076e+03 
+1.001220e+03 
+1.000796e+03 
+1.001817e+03 
+1.001717e+03 
+1.000686e+03 
+1.002170e+03 
+1.000847e+03 
+1.001080e+03 
+1.000923e+03 
+1.001946e+03 
+1.001110e+03 
+1.001814e+03 
+1.000831e+03 
+1.001655e+03 
+1.001354e+03 
+1.001478e+03 
+1.000946e+03 
+1.001194e+03 
+1.001263e+03 
+1.001171e+03 
+1.001267e+03 
+1.001033e+03 
+1.001472e+03 
+1.001184e+03 
+1.001199e+03 
+1.001481e+03 
+1.001413e+03 
+1.000784e+03 
+1.002349e+03 
+1.001351e+03 
+1.000037e+03 
+1.001810e+03 
+1.000617e+03 
+1.001119e+03 
+1.000792e+03 
+1.001417e+03 
+1.000805e+03 
+1.000882e+03 
+1.001360e+03 
+1.001248e+03 
+1.001193e+03 
+1.000767e+03 
+1.001125e+03 
+1.001366e+03 
+1.001140e+03 
+1.000501e+03 
+1.000697e+03 
+1.000801e+03 
+1.001226e+03 
+1.000495e+03 
+1.000659e+03 
+1.000250e+03 
+1.000541e+03 
+1.000747e+03 
+1.000884e+03 
+1.000145e+03 
+1.000251e+03 
+1.000826e+03 
+1.000607e+03 
+1.000661e+03 
+1.000978e+03 
+1.000159e+03 
+1.000673e+03 
+1.000218e+03 
+1.000605e+03 
+1.000973e+03 
+9.999163e+02 
+1.000602e+03 
+1.000204e+03 
+1.000762e+03 
+1.000569e+03 
+1.000955e+03 
+1.000705e+03 
+1.000671e+03 
+1.000703e+03 
+1.000811e+03 
+1.000726e+03 
+1.000553e+03 
+1.000892e+03 
+1.000749e+03 
+1.000575e+03 
+1.000313e+03 
+1.001090e+03 
+1.000888e+03 
+1.001042e+03 
+1.000623e+03 
+1.000599e+03 
+1.000976e+03 
+1.000969e+03 
+1.000196e+03 
+1.000768e+03 
+1.001924e+03 
+1.000125e+03 
+1.000900e+03 
+1.000396e+03 
+1.001149e+03 
+1.001581e+03 
+1.000511e+03 
+1.000920e+03 
+1.001996e+03 
+1.001476e+03 
+1.001290e+03 
+1.000844e+03 
+1.000644e+03 
+1.000403e+03 
+1.001885e+03 
+1.001148e+03 
+1.001534e+03 
+9.998761e+02 
+1.002063e+03 
+1.000779e+03 
+1.000698e+03 
+1.000382e+03 
+1.001963e+03 
+9.999768e+02 
+1.001378e+03 
+1.001504e+03 
+9.993291e+02 
+1.002504e+03 
+1.000521e+03 
+1.000458e+03 
+1.000905e+03 
+1.000802e+03 
+1.001206e+03 
+1.000690e+03 
+1.002200e+03 
+1.000065e+03 
+1.001673e+03 
+1.001304e+03 
+1.000964e+03 
+1.000259e+03 
+1.001176e+03 
+1.000729e+03 
+1.000521e+03 
+1.001291e+03 
+1.000948e+03 
+1.000810e+03 
+1.000248e+03 
+1.001013e+03 
+1.000413e+03 
+1.001830e+03 
+1.000778e+03 
+1.000135e+03 
+1.000499e+03 
+1.001564e+03 
+1.000736e+03 
+1.001382e+03 
+1.001262e+03 
+1.000897e+03 
+1.001523e+03 
+1.000605e+03 
+1.001340e+03 
+1.001639e+03 
+1.001908e+03 
+1.002222e+03 
+1.002119e+03 
+1.001803e+03 
+1.001400e+03 
+1.002507e+03 
+1.002260e+03 
+1.001616e+03 
+1.001856e+03 
+1.002328e+03 
+1.001838e+03 
+1.002095e+03 
+1.001831e+03 
+1.002145e+03 
+1.001738e+03 
+1.002659e+03 
+1.003426e+03 
+1.003612e+03 
+1.003522e+03 
+1.002805e+03 
+1.003030e+03 
+1.002474e+03 
+1.003576e+03 
+1.003259e+03 
+1.003467e+03 
+1.003383e+03 
+1.003175e+03 
+1.003270e+03 
+1.003475e+03 
+1.003715e+03 
+1.003906e+03 
+1.004407e+03 
+1.004099e+03 
+1.004624e+03 
+1.004876e+03 
+1.004500e+03 
+1.004524e+03 
+1.005009e+03 
+1.005016e+03 
+1.004396e+03 
+1.004935e+03 
+1.005110e+03 
+1.003961e+03 
+1.003714e+03 
+1.004176e+03 
+1.003886e+03 
+1.002496e+03 
+1.002528e+03 
+1.002460e+03 
+1.002491e+03 
+1.002622e+03 
+1.002597e+03 
+1.002554e+03 
+1.002576e+03 
+1.002599e+03 
+1.002635e+03 
+1.002536e+03 
+1.002598e+03 
+1.002628e+03 
+1.002529e+03 
+1.002610e+03 
+1.002574e+03 
+1.002551e+03 
+1.002593e+03 
+1.002469e+03 
+1.002507e+03 
+1.002492e+03 
+1.002577e+03 
+1.002529e+03 
+1.002560e+03 
+1.002517e+03 
+1.002436e+03 
+1.002453e+03 
+1.002527e+03 
+1.002557e+03 
+1.002499e+03 
+1.002492e+03 
+1.002419e+03 
+1.002424e+03 
+1.002469e+03 
+1.002544e+03 
+1.002421e+03 
+1.002553e+03 
+1.002499e+03 
+1.002447e+03 
+1.002521e+03 
+1.002517e+03 
+1.002528e+03 
+1.002515e+03 
+1.002446e+03 
+1.002348e+03 
+1.002465e+03 
+1.002509e+03 
+1.002581e+03 
+1.002442e+03 
+1.002528e+03 
+1.002394e+03 
+1.002525e+03 
+1.002527e+03 
+1.002479e+03 
+1.002397e+03 
+1.002375e+03 
+1.002566e+03 
+1.002429e+03 
+1.002526e+03 
+1.002537e+03 
+1.002495e+03 
+1.002433e+03 
+1.002378e+03 
+1.002558e+03 
+1.002382e+03 
+1.002502e+03 
+1.002561e+03 
+1.002412e+03 
+1.002500e+03 
+1.002554e+03 
+1.002431e+03 
+1.002540e+03 
+1.002456e+03 
+1.002377e+03 
+1.002544e+03 
+1.002413e+03 
+1.002576e+03 
+1.002507e+03 
+1.002418e+03 
+1.002559e+03 
+1.002485e+03 
+1.002384e+03 
+1.002501e+03 
+1.002415e+03 
+1.002536e+03 
+1.002449e+03 
+1.002368e+03 
+1.002447e+03 
+1.002485e+03 
+1.002489e+03 
+1.002375e+03 
+1.002548e+03 
+1.002387e+03 
+1.002435e+03 
+1.002412e+03 
+1.002486e+03 
+1.002414e+03 
+1.002313e+03 
+1.002497e+03 
+1.002346e+03 
+1.002409e+03 
+1.002505e+03 
+1.002322e+03 
+1.002446e+03 
+1.002437e+03 
+1.002305e+03 
+1.002324e+03 
+1.002435e+03 
+1.002294e+03 
+1.002337e+03 
+1.002443e+03 
+1.002277e+03 
+1.002326e+03 
+1.002366e+03 
+1.002213e+03 
+1.002301e+03 
+1.002356e+03 
+1.002257e+03 
+1.002340e+03 
+1.002388e+03 
+1.002198e+03 
+1.002280e+03 
+1.002340e+03 
+1.002230e+03 
+1.002285e+03 
+1.002291e+03 
+1.002276e+03 
+1.002221e+03 
+1.002267e+03 
+1.002182e+03 
+1.002215e+03 
+1.002284e+03 
+1.002187e+03 
+1.002223e+03 
+1.002299e+03 
+1.002168e+03 
+1.002220e+03 
+1.002327e+03 
+1.002200e+03 
+1.002265e+03 
+1.002281e+03 
+1.002173e+03 
+1.002229e+03 
+1.002114e+03 
+1.002224e+03 
+1.002260e+03 
+1.002130e+03 
+1.002213e+03 
+1.002273e+03 
+1.002114e+03 
+1.002220e+03 
+1.002243e+03 
+1.002130e+03 
+1.002165e+03 
+1.002237e+03 
+1.002165e+03 
+1.002165e+03 
+1.002204e+03 
+1.002050e+03 
+1.002132e+03 
+1.002156e+03 
+1.002086e+03 
+1.002196e+03 
+1.002222e+03 
+1.002088e+03 
+1.002188e+03 
+1.002275e+03 
+1.002064e+03 
+1.002251e+03 
+1.002161e+03 
+1.002099e+03 
+1.002248e+03 
+1.002198e+03 
+1.002136e+03 
+1.002232e+03 
+1.002160e+03 
+1.002159e+03 
+1.002223e+03 
+1.002115e+03 
+1.002272e+03 
+1.002089e+03 
+1.002143e+03 
+1.002171e+03 
+1.002034e+03 
+1.002092e+03 
+1.002162e+03 
+1.002086e+03 
+1.002134e+03 
+1.002169e+03 
+1.001979e+03 
+1.002036e+03 
+1.002102e+03 
+1.002013e+03 
+1.002090e+03 
+1.002188e+03 
+1.001985e+03 
+1.002049e+03 
+1.002132e+03 
+1.001983e+03 
+1.002052e+03 
+1.002049e+03 
+1.001912e+03 
+1.002041e+03 
+1.002092e+03 
+1.001935e+03 
+1.002022e+03 
+1.002058e+03 
+1.001880e+03 
+1.002050e+03 
+1.001945e+03 
+1.002072e+03 
+1.001917e+03 
+1.001982e+03 
+1.001983e+03 
+1.001947e+03 
+1.001840e+03 
+1.002009e+03 
+1.001997e+03 
+1.001858e+03 
+1.001865e+03 
+1.001902e+03 
+1.001824e+03 
+1.001812e+03 
+1.001894e+03 
+1.001837e+03 
+1.001859e+03 
+1.001864e+03 
+1.001978e+03 
+1.001711e+03 
+1.001775e+03 
+1.001744e+03 
+1.001812e+03 
+1.001781e+03 
+1.001791e+03 
+1.001744e+03 
+1.001828e+03 
+1.001906e+03 
+1.001688e+03 
+1.001826e+03 
+1.001786e+03 
+1.001827e+03 
+1.001758e+03 
+1.001598e+03 
+1.001788e+03 
+1.001736e+03 
+1.001685e+03 
+1.001722e+03 
+1.001736e+03 
+1.001643e+03 
+1.001750e+03 
+1.001819e+03 
+1.001670e+03 
+1.001706e+03 
+1.001778e+03 
+1.001652e+03 
+1.001678e+03 
+1.001863e+03 
+1.001569e+03 
+1.001888e+03 
+1.001624e+03 
+1.001664e+03 
+1.001709e+03 
+1.001629e+03 
+1.001614e+03 
+1.001694e+03 
+1.001770e+03 
+1.001667e+03 
+1.001644e+03 
+1.001692e+03 
+1.001648e+03 
+1.001732e+03 
+1.001667e+03 
+1.001579e+03 