# vtk DataFile Version 2.0
Unstructured Grid Example
ASCII
DATASET UNSTRUCTURED_GRID
POINTS 6462 float
-6.000000e-02 -6.000000e-02 +0.000000e+00 
-4.000000e-02 -6.000000e-02 +0.000000e+00 
-6.000000e-02 -4.000000e-02 +0.000000e+00 
-4.000000e-02 -4.000000e-02 +0.000000e+00 
-2.000000e-02 -6.000000e-02 +0.000000e+00 
+0.000000e+00 -6.000000e-02 +0.000000e+00 
-2.000000e-02 -4.000000e-02 +0.000000e+00 
+0.000000e+00 -4.000000e-02 +0.000000e+00 
+2.000000e-02 -6.000000e-02 +0.000000e+00 
+4.000000e-02 -6.000000e-02 +0.000000e+00 
+2.000000e-02 -4.000000e-02 +0.000000e+00 
+4.000000e-02 -4.000000e-02 +0.000000e+00 
+6.000000e-02 -6.000000e-02 +0.000000e+00 
+8.000000e-02 -6.000000e-02 +0.000000e+00 
+1.000000e-01 -6.000000e-02 +0.000000e+00 
+6.000000e-02 -4.000000e-02 +0.000000e+00 
+8.000000e-02 -4.000000e-02 +0.000000e+00 
+1.000000e-01 -4.000000e-02 +0.000000e+00 
+1.200000e-01 -6.000000e-02 +0.000000e+00 
+1.400000e-01 -6.000000e-02 +0.000000e+00 
+1.200000e-01 -4.000000e-02 +0.000000e+00 
+1.400000e-01 -4.000000e-02 +0.000000e+00 
+1.600000e-01 -6.000000e-02 +0.000000e+00 
+1.800000e-01 -6.000000e-02 +0.000000e+00 
+2.000000e-01 -6.000000e-02 +0.000000e+00 
+1.600000e-01 -4.000000e-02 +0.000000e+00 
+1.800000e-01 -4.000000e-02 +0.000000e+00 
+2.000000e-01 -4.000000e-02 +0.000000e+00 
+2.200000e-01 -6.000000e-02 +0.000000e+00 
+2.400000e-01 -6.000000e-02 +0.000000e+00 
+2.200000e-01 -4.000000e-02 +0.000000e+00 
+2.400000e-01 -4.000000e-02 +0.000000e+00 
+2.600000e-01 -6.000000e-02 +0.000000e+00 
+2.800000e-01 -6.000000e-02 +0.000000e+00 
+2.600000e-01 -4.000000e-02 +0.000000e+00 
+2.800000e-01 -4.000000e-02 +0.000000e+00 
+3.000000e-01 -6.000000e-02 +0.000000e+00 
+3.200000e-01 -6.000000e-02 +0.000000e+00 
+3.400000e-01 -6.000000e-02 +0.000000e+00 
+3.000000e-01 -4.000000e-02 +0.000000e+00 
+3.200000e-01 -4.000000e-02 +0.000000e+00 
+3.400000e-01 -4.000000e-02 +0.000000e+00 
+3.600000e-01 -6.000000e-02 +0.000000e+00 
+3.800000e-01 -6.000000e-02 +0.000000e+00 
+3.600000e-01 -4.000000e-02 +0.000000e+00 
+3.800000e-01 -4.000000e-02 +0.000000e+00 
+4.000000e-01 -6.000000e-02 +0.000000e+00 
+4.200000e-01 -6.000000e-02 +0.000000e+00 
+4.400000e-01 -6.000000e-02 +0.000000e+00 
+4.000000e-01 -4.000000e-02 +0.000000e+00 
+4.200000e-01 -4.000000e-02 +0.000000e+00 
+4.400000e-01 -4.000000e-02 +0.000000e+00 
+4.600000e-01 -6.000000e-02 +0.000000e+00 
+4.800000e-01 -6.000000e-02 +0.000000e+00 
+4.600000e-01 -4.000000e-02 +0.000000e+00 
+4.800000e-01 -4.000000e-02 +0.000000e+00 
+5.000000e-01 -6.000000e-02 +0.000000e+00 
+5.200000e-01 -6.000000e-02 +0.000000e+00 
+5.000000e-01 -4.000000e-02 +0.000000e+00 
+5.200000e-01 -4.000000e-02 +0.000000e+00 
+5.400000e-01 -6.000000e-02 +0.000000e+00 
+5.600000e-01 -6.000000e-02 +0.000000e+00 
+5.800000e-01 -6.000000e-02 +0.000000e+00 
+5.400000e-01 -4.000000e-02 +0.000000e+00 
+5.600000e-01 -4.000000e-02 +0.000000e+00 
+5.800000e-01 -4.000000e-02 +0.000000e+00 
+6.000000e-01 -6.000000e-02 +0.000000e+00 
+6.200000e-01 -6.000000e-02 +0.000000e+00 
+6.000000e-01 -4.000000e-02 +0.000000e+00 
+6.200000e-01 -4.000000e-02 +0.000000e+00 
+6.400000e-01 -6.000000e-02 +0.000000e+00 
+6.600000e-01 -6.000000e-02 +0.000000e+00 
+6.800000e-01 -6.000000e-02 +0.000000e+00 
+6.400000e-01 -4.000000e-02 +0.000000e+00 
+6.600000e-01 -4.000000e-02 +0.000000e+00 
+6.800000e-01 -4.000000e-02 +0.000000e+00 
+7.000000e-01 -6.000000e-02 +0.000000e+00 
+7.200000e-01 -6.000000e-02 +0.000000e+00 
+7.000000e-01 -4.000000e-02 +0.000000e+00 
+7.200000e-01 -4.000000e-02 +0.000000e+00 
+7.400000e-01 -6.000000e-02 +0.000000e+00 
+7.600000e-01 -6.000000e-02 +0.000000e+00 
+7.400000e-01 -4.000000e-02 +0.000000e+00 
+7.600000e-01 -4.000000e-02 +0.000000e+00 
+7.800000e-01 -6.000000e-02 +0.000000e+00 
+8.000000e-01 -6.000000e-02 +0.000000e+00 
+8.200000e-01 -6.000000e-02 +0.000000e+00 
+7.800000e-01 -4.000000e-02 +0.000000e+00 
+8.000000e-01 -4.000000e-02 +0.000000e+00 
+8.200000e-01 -4.000000e-02 +0.000000e+00 
+8.400000e-01 -6.000000e-02 +0.000000e+00 
+8.600000e-01 -6.000000e-02 +0.000000e+00 
+8.400000e-01 -4.000000e-02 +0.000000e+00 
+8.600000e-01 -4.000000e-02 +0.000000e+00 
+8.800000e-01 -6.000000e-02 +0.000000e+00 
+9.000000e-01 -6.000000e-02 +0.000000e+00 
+8.800000e-01 -4.000000e-02 +0.000000e+00 
+9.000000e-01 -4.000000e-02 +0.000000e+00 
+9.200000e-01 -6.000000e-02 +0.000000e+00 
+9.400000e-01 -6.000000e-02 +0.000000e+00 
+9.600000e-01 -6.000000e-02 +0.000000e+00 
+9.200000e-01 -4.000000e-02 +0.000000e+00 
+9.400000e-01 -4.000000e-02 +0.000000e+00 
+9.600000e-01 -4.000000e-02 +0.000000e+00 
+9.800000e-01 -6.000000e-02 +0.000000e+00 
+1.000000e+00 -6.000000e-02 +0.000000e+00 
+9.800000e-01 -4.000000e-02 +0.000000e+00 
+1.000000e+00 -4.000000e-02 +0.000000e+00 
+1.020000e+00 -6.000000e-02 +0.000000e+00 
+1.040000e+00 -6.000000e-02 +0.000000e+00 
+1.060000e+00 -6.000000e-02 +0.000000e+00 
+1.020000e+00 -4.000000e-02 +0.000000e+00 
+1.040000e+00 -4.000000e-02 +0.000000e+00 
+1.060000e+00 -4.000000e-02 +0.000000e+00 
+1.080000e+00 -6.000000e-02 +0.000000e+00 
+1.100000e+00 -6.000000e-02 +0.000000e+00 
+1.080000e+00 -4.000000e-02 +0.000000e+00 
+1.100000e+00 -4.000000e-02 +0.000000e+00 
+1.120000e+00 -6.000000e-02 +0.000000e+00 
+1.140000e+00 -6.000000e-02 +0.000000e+00 
+1.160000e+00 -6.000000e-02 +0.000000e+00 
+1.120000e+00 -4.000000e-02 +0.000000e+00 
+1.140000e+00 -4.000000e-02 +0.000000e+00 
+1.160000e+00 -4.000000e-02 +0.000000e+00 
+1.180000e+00 -6.000000e-02 +0.000000e+00 
+1.200000e+00 -6.000000e-02 +0.000000e+00 
+1.180000e+00 -4.000000e-02 +0.000000e+00 
+1.200000e+00 -4.000000e-02 +0.000000e+00 
+1.220000e+00 -6.000000e-02 +0.000000e+00 
+1.240000e+00 -6.000000e-02 +0.000000e+00 
+1.220000e+00 -4.000000e-02 +0.000000e+00 
+1.240000e+00 -4.000000e-02 +0.000000e+00 
+1.260000e+00 -6.000000e-02 +0.000000e+00 
+1.280000e+00 -6.000000e-02 +0.000000e+00 
+1.300000e+00 -6.000000e-02 +0.000000e+00 
+1.260000e+00 -4.000000e-02 +0.000000e+00 
+1.280000e+00 -4.000000e-02 +0.000000e+00 
+1.300000e+00 -4.000000e-02 +0.000000e+00 
+1.320000e+00 -6.000000e-02 +0.000000e+00 
+1.340000e+00 -6.000000e-02 +0.000000e+00 
+1.320000e+00 -4.000000e-02 +0.000000e+00 
+1.340000e+00 -4.000000e-02 +0.000000e+00 
+1.360000e+00 -6.000000e-02 +0.000000e+00 
+1.380000e+00 -6.000000e-02 +0.000000e+00 
+1.400000e+00 -6.000000e-02 +0.000000e+00 
+1.360000e+00 -4.000000e-02 +0.000000e+00 
+1.380000e+00 -4.000000e-02 +0.000000e+00 
+1.400000e+00 -4.000000e-02 +0.000000e+00 
+1.420000e+00 -6.000000e-02 +0.000000e+00 
+1.440000e+00 -6.000000e-02 +0.000000e+00 
+1.420000e+00 -4.000000e-02 +0.000000e+00 
+1.440000e+00 -4.000000e-02 +0.000000e+00 
+1.460000e+00 -6.000000e-02 +0.000000e+00 
+1.480000e+00 -6.000000e-02 +0.000000e+00 
+1.460000e+00 -4.000000e-02 +0.000000e+00 
+1.480000e+00 -4.000000e-02 +0.000000e+00 
+1.500000e+00 -6.000000e-02 +0.000000e+00 
+1.520000e+00 -6.000000e-02 +0.000000e+00 
+1.540000e+00 -6.000000e-02 +0.000000e+00 
+1.500000e+00 -4.000000e-02 +0.000000e+00 
+1.520000e+00 -4.000000e-02 +0.000000e+00 
+1.540000e+00 -4.000000e-02 +0.000000e+00 
+1.560000e+00 -6.000000e-02 +0.000000e+00 
+1.580000e+00 -6.000000e-02 +0.000000e+00 
+1.560000e+00 -4.000000e-02 +0.000000e+00 
+1.580000e+00 -4.000000e-02 +0.000000e+00 
+1.600000e+00 -6.000000e-02 +0.000000e+00 
+1.620000e+00 -6.000000e-02 +0.000000e+00 
+1.640000e+00 -6.000000e-02 +0.000000e+00 
+1.600000e+00 -4.000000e-02 +0.000000e+00 
+1.620000e+00 -4.000000e-02 +0.000000e+00 
+1.640000e+00 -4.000000e-02 +0.000000e+00 
+1.660000e+00 -6.000000e-02 +0.000000e+00 
+1.680000e+00 -6.000000e-02 +0.000000e+00 
+1.660000e+00 -4.000000e-02 +0.000000e+00 
+1.680000e+00 -4.000000e-02 +0.000000e+00 
+1.700000e+00 -6.000000e-02 +0.000000e+00 
+1.720000e+00 -6.000000e-02 +0.000000e+00 
+1.700000e+00 -4.000000e-02 +0.000000e+00 
+1.720000e+00 -4.000000e-02 +0.000000e+00 
+1.740000e+00 -6.000000e-02 +0.000000e+00 
+1.760000e+00 -6.000000e-02 +0.000000e+00 
+1.780000e+00 -6.000000e-02 +0.000000e+00 
+1.740000e+00 -4.000000e-02 +0.000000e+00 
+1.760000e+00 -4.000000e-02 +0.000000e+00 
+1.780000e+00 -4.000000e-02 +0.000000e+00 
+1.800000e+00 -6.000000e-02 +0.000000e+00 
+1.820000e+00 -6.000000e-02 +0.000000e+00 
+1.800000e+00 -4.000000e-02 +0.000000e+00 
+1.820000e+00 -4.000000e-02 +0.000000e+00 
+1.840000e+00 -6.000000e-02 +0.000000e+00 
+1.860000e+00 -6.000000e-02 +0.000000e+00 
+1.880000e+00 -6.000000e-02 +0.000000e+00 
+1.840000e+00 -4.000000e-02 +0.000000e+00 
+1.860000e+00 -4.000000e-02 +0.000000e+00 
+1.880000e+00 -4.000000e-02 +0.000000e+00 
+1.900000e+00 -6.000000e-02 +0.000000e+00 
+1.920000e+00 -6.000000e-02 +0.000000e+00 
+1.900000e+00 -4.000000e-02 +0.000000e+00 
+1.920000e+00 -4.000000e-02 +0.000000e+00 
+1.940000e+00 -6.000000e-02 +0.000000e+00 
+1.960000e+00 -6.000000e-02 +0.000000e+00 
+1.940000e+00 -4.000000e-02 +0.000000e+00 
+1.960000e+00 -4.000000e-02 +0.000000e+00 
+1.980000e+00 -6.000000e-02 +0.000000e+00 
+2.000000e+00 -6.000000e-02 +0.000000e+00 
+2.020000e+00 -6.000000e-02 +0.000000e+00 
+1.980000e+00 -4.000000e-02 +0.000000e+00 
+2.000000e+00 -4.000000e-02 +0.000000e+00 
+2.020000e+00 -4.000000e-02 +0.000000e+00 
+2.040000e+00 -6.000000e-02 +0.000000e+00 
+2.060000e+00 -6.000000e-02 +0.000000e+00 
+2.040000e+00 -4.000000e-02 +0.000000e+00 
+2.060000e+00 -4.000000e-02 +0.000000e+00 
+2.080000e+00 -6.000000e-02 +0.000000e+00 
+2.100000e+00 -6.000000e-02 +0.000000e+00 
+2.120000e+00 -6.000000e-02 +0.000000e+00 
+2.080000e+00 -4.000000e-02 +0.000000e+00 
+2.100000e+00 -4.000000e-02 +0.000000e+00 
+2.120000e+00 -4.000000e-02 +0.000000e+00 
+2.140000e+00 -6.000000e-02 +0.000000e+00 
+2.160000e+00 -6.000000e-02 +0.000000e+00 
+2.140000e+00 -4.000000e-02 +0.000000e+00 
+2.160000e+00 -4.000000e-02 +0.000000e+00 
+2.180000e+00 -6.000000e-02 +0.000000e+00 
+2.200000e+00 -6.000000e-02 +0.000000e+00 
+2.180000e+00 -4.000000e-02 +0.000000e+00 
+2.200000e+00 -4.000000e-02 +0.000000e+00 
+2.220000e+00 -6.000000e-02 +0.000000e+00 
+2.240000e+00 -6.000000e-02 +0.000000e+00 
[...]
POINT_DATA 6462 
SCALARS density float 1 
LOOKUP_TABLE default
+1.001650e+03 
+1.001652e+03 
+1.001645e+03 
+1.001647e+03 
+1.001656e+03 
+1.001662e+03 
+1.001652e+03 
+1.001660e+03 
+1.001668e+03 
+1.001672e+03 
+1.001668e+03 
+1.001672e+03 
+1.001673e+03 
+1.001671e+03 
+1.001667e+03 
+1.001673e+03 
+1.001670e+03 
+1.001665e+03 
+1.001661e+03 
+1.001655e+03 
+1.001659e+03 
+1.001652e+03 
+1.001648e+03 
+1.001642e+03 
+1.001640e+03 
+1.001643e+03 
+1.001636e+03 
+1.001633e+03 
+1.001642e+03 
+1.001645e+03 
+1.001638e+03 
+1.001642e+03 
+1.001647e+03 
+1.001647e+03 
+1.001643e+03 
+1.001644e+03 
+1.001647e+03 
+1.001646e+03 
+1.001646e+03 
+1.001644e+03 
+1.001641e+03 
+1.001638e+03 
+1.001648e+03 
+1.001647e+03 
+1.001649e+03 
+1.001646e+03 
+1.001642e+03 
+1.001633e+03 
+1.001625e+03 
+1.001638e+03 
+1.001631e+03 
+1.001615e+03 
+1.001623e+03 
+1.001627e+03 
+1.001610e+03 
+1.001632e+03 
+1.001625e+03 
+1.001619e+03 
+1.001622e+03 
+1.001614e+03 
+1.001614e+03 
+1.001610e+03 
+1.001611e+03 
+1.001612e+03 
+1.001598e+03 
+1.001607e+03 
+1.001614e+03 
+1.001613e+03 
+1.001617e+03 
+1.001610e+03 
+1.001610e+03 
+1.001610e+03 
+1.001612e+03 
+1.001606e+03 
+1.001604e+03 
+1.001608e+03 
+1.001617e+03 
+1.001624e+03 
+1.001614e+03 
+1.001625e+03 
+1.001629e+03 
+1.001632e+03 
+1.001630e+03 
+1.001628e+03 
+1.001634e+03 
+1.001631e+03 
+1.001624e+03 
+1.001640e+03 
+1.001638e+03 
+1.001615e+03 
+1.001619e+03 
+1.001613e+03 
+1.001625e+03 
+1.001614e+03 
+1.001601e+03 
+1.001583e+03 
+1.001615e+03 
+1.001565e+03 
+1.001580e+03 
+1.001595e+03 
+1.001607e+03 
+1.001559e+03 
+1.001607e+03 
+1.001605e+03 
+1.001615e+03 
+1.001616e+03 
+1.001624e+03 
+1.001621e+03 
+1.001613e+03 
+1.001604e+03 
+1.001594e+03 
+1.001619e+03 
+1.001604e+03 
+1.001596e+03 
+1.001588e+03 
+1.001594e+03 
+1.001572e+03 
+1.001596e+03 
+1.001602e+03 
+1.001605e+03 
+1.001601e+03 
+1.001607e+03 
+1.001611e+03 
+1.001601e+03 
+1.001598e+03 
+1.001601e+03 
+1.001591e+03 
+1.001595e+03 
+1.001609e+03 
+1.001614e+03 
+1.001609e+03 
+1.001627e+03 
+1.001606e+03 
+1.001588e+03 
+1.001561e+03 
+1.001611e+03 
+1.001594e+03 
+1.001558e+03 
+1.001541e+03 
+1.001534e+03 
+1.001511e+03 
+1.001547e+03 
+1.001518e+03 
+1.001495e+03 
+1.001486e+03 
+1.001525e+03 
+1.001473e+03 
+1.001466e+03 
+1.001495e+03 
+1.001509e+03 
+1.001485e+03 
+1.001514e+03 
+1.001513e+03 
+1.001498e+03 
+1.001534e+03 
+1.001498e+03 
+1.001481e+03 
+1.001477e+03 
+1.001477e+03 
+1.001463e+03 
+1.001478e+03 
+1.001476e+03 
+1.001480e+03 
+1.001486e+03 
+1.001471e+03 
+1.001496e+03 
+1.001487e+03 
+1.001481e+03 
+1.001477e+03 
+1.001499e+03 
+1.001477e+03 
+1.001473e+03 
+1.001479e+03 
+1.001479e+03 
+1.001484e+03 
+1.001498e+03 
+1.001465e+03 
+1.001443e+03 
+1.001482e+03 
+1.001429e+03 
+1.001431e+03 
+1.001426e+03 
+1.001437e+03 
+1.001446e+03 
+1.001410e+03 
+1.001437e+03 
+1.001454e+03 
+1.001463e+03 
+1.001474e+03 
+1.001476e+03 
+1.001466e+03 
+1.001463e+03 
+1.001450e+03 
+1.001476e+03 
+1.001486e+03 
+1.001451e+03 
+1.001444e+03 
+1.001452e+03 
+1.001429e+03 
+1.001479e+03 
+1.001448e+03 
+1.001435e+03 
+1.001475e+03 
+1.001406e+03 
+1.001439e+03 
+1.001440e+03 
+1.001437e+03 
+1.001464e+03 
+1.001460e+03 
+1.001425e+03 
+1.001442e+03 
+1.001436e+03 
+1.001469e+03 
+1.001459e+03 
+1.001412e+03 
+1.001379e+03 
+1.001376e+03 
+1.001446e+03 
+1.001341e+03 
+1.001380e+03 
+1.001377e+03 
+1.001360e+03 
+1.001419e+03 
+1.001343e+03 
+1.001356e+03 
+1.001363e+03 
+1.001352e+03 
+1.001382e+03 
+1.001363e+03 
+1.001367e+03 
+1.001358e+03 
+1.001359e+03 
+1.001390e+03 
+1.001377e+03 
+1.001338e+03 
+1.001325e+03 
+1.001342e+03 
+1.001314e+03 
+1.001332e+03 
+1.001346e+03 
+1.001342e+03 
+1.001328e+03 
+1.001390e+03 
+1.001365e+03 
+1.001328e+03 
+1.001318e+03 
+1.001337e+03 
+1.001325e+03 
+1.001317e+03 
+1.001320e+03 
+1.001331e+03 
+1.001343e+03 
+1.001323e+03 
+1.001318e+03 
+1.001313e+03 
+1.001348e+03 
+1.001343e+03 
+1.001331e+03 
+1.001308e+03 
+1.001306e+03 
+1.001330e+03 
+1.001320e+03 
+1.001305e+03 
+1.001287e+03 
+1.001275e+03 
+1.001352e+03 
+1.001302e+03 
+1.001268e+03 
+1.001281e+03 
+1.001294e+03 
+1.001297e+03 
+1.001307e+03 
+1.001307e+03 
+1.001313e+03 
+1.001318e+03 
+1.001363e+03 
+1.001296e+03 
+1.001281e+03 
+1.001284e+03 
+1.001307e+03 
+1.001266e+03 
+1.001297e+03 
+1.001292e+03 
+1.001295e+03 
+1.001303e+03 
+1.001314e+03 
+1.001284e+03 
+1.001270e+03 
+1.001267e+03 
+1.001293e+03 
+1.001250e+03 
+1.001265e+03 
+1.001260e+03 
+1.001237e+03 
+1.001277e+03 
+1.001244e+03 
+1.001199e+03 
+1.001191e+03 
+1.001168e+03 
+1.001139e+03 
+1.001219e+03 
+1.001245e+03 
+1.001250e+03 
+1.001211e+03 
+1.001261e+03 
+1.001236e+03 
+1.001252e+03 
+1.001272e+03 
+1.001219e+03 
+1.001232e+03 
+1.001304e+03 
+1.001324e+03 
+1.001322e+03 
+1.001296e+03 
+1.001327e+03 
+1.001316e+03 
+1.001301e+03 
+1.001270e+03 
+1.001276e+03 
+1.001266e+03 
+1.001236e+03 
+1.001215e+03 
+1.001204e+03 
+1.001203e+03 
+1.001194e+03 
+1.001192e+03 
+1.001179e+03 
+1.001140e+03 
+1.001201e+03 
+1.001159e+03 
+1.001156e+03 
+1.001158e+03 
+1.001115e+03 
+1.001107e+03 
+1.001187e+03 
+1.001226e+03 
+1.001254e+03 
+1.001155e+03 
+1.001221e+03 
+1.001263e+03 
+1.001263e+03 
+1.001267e+03 
+1.001257e+03 
+1.001266e+03 
+1.001271e+03 
+1.001289e+03 
+1.001242e+03 
+1.001295e+03 
+1.001296e+03 
+1.001285e+03 
+1.001286e+03 
+1.001334e+03 
+1.001222e+03 
+1.001391e+03 
+1.001235e+03 
+1.001222e+03 
+1.001173e+03 
+1.001196e+03 
+1.001247e+03 
+1.001273e+03 
+1.001282e+03 
+1.001241e+03 
+1.001287e+03 
+1.001284e+03 
+1.001280e+03 
+1.001252e+03 
+1.001288e+03 
+1.001308e+03 
+1.001205e+03 
+1.001188e+03 
+1.001127e+03 
+1.001226e+03 
+1.001164e+03 
+1.001157e+03 
+1.001151e+03 
+1.001133e+03 
+1.001137e+03 
+1.001176e+03 
+1.001123e+03 
+1.001090e+03 
+1.001128e+03 
+1.001024e+03 
+1.001092e+03 
+1.001080e+03 
+1.001060e+03 
+1.001104e+03 
+1.001074e+03 
+1.001041e+03 
+1.001048e+03 
+1.001060e+03 
+1.000999e+03 
+1.001070e+03 
+1.001067e+03 
+1.001060e+03 
+1.001077e+03 
+1.001044e+03 
+1.001064e+03 
+1.001069e+03 
+1.001057e+03 
+1.001050e+03 
+1.001084e+03 
+1.001069e+03 
+1.001031e+03 
+1.000995e+03 
+1.001029e+03 
+1.001002e+03 
+1.000952e+03 
+1.000927e+03 
+1.000890e+03 
+1.000942e+03 
+1.000957e+03 
+1.000913e+03 
+1.000873e+03 
+1.000887e+03 
+1.000842e+03 
+1.000974e+03 
+1.000882e+03 
+1.000879e+03 
+1.000938e+03 
+1.000943e+03 
+1.000858e+03 
+1.000856e+03 
+1.000879e+03 
+1.000895e+03 
+1.000870e+03 
+1.000891e+03 
+1.000937e+03 
+1.001017e+03 
+1.000926e+03 
+1.001094e+03 
+1.001081e+03 
+1.001136e+03 
+1.001093e+03 
+1.001217e+03 
+1.001154e+03 
+1.001148e+03 
+1.001129e+03 
+1.001197e+03 
+1.001206e+03 
+1.001123e+03 
+1.001135e+03 
+1.001168e+03 
+1.001140e+03 
+1.001192e+03 
+1.001214e+03 
+1.001262e+03 
+1.001273e+03 
+1.001217e+03 
+1.001349e+03 
+1.001305e+03 
+1.001266e+03 
+1.001254e+03 
+1.001306e+03 
+1.001281e+03 
+1.001257e+03 
+1.001316e+03 
+1.001382e+03 
+1.001200e+03 
+1.001362e+03 
+1.001422e+03 
+1.001425e+03 
+1.001458e+03 
+1.001454e+03 
+1.001486e+03 
+1.001490e+03 
+1.001532e+03 
+1.001482e+03 
+1.001553e+03 
+1.001561e+03 
+1.001562e+03 
+1.001585e+03 
+1.001621e+03 
+1.001544e+03 
+1.001573e+03 
+1.001631e+03 
+1.001676e+03 
+1.001646e+03 
+1.001704e+03 
+1.001711e+03 
+1.001777e+03 
+1.001692e+03 
+1.001746e+03 
+1.001869e+03 
+1.001939e+03 
+1.002000e+03 
+1.001906e+03 
+1.001956e+03 
+1.001947e+03 
+1.002100e+03 
+1.002218e+03 
+1.002060e+03 
+1.002245e+03 
+1.002294e+03 
+1.002319e+03 
+1.002340e+03 
+1.002339e+03 
+1.002307e+03 
+1.002319e+03 
+1.002378e+03 
+1.002431e+03 
+1.002362e+03 
+1.002426e+03 
+1.002493e+03 
+1.002556e+03 
+1.002594e+03 
+1.002493e+03 
+1.002589e+03 
+1.002642e+03 
+1.002591e+03 
+1.002562e+03 
+1.002622e+03 
+1.002566e+03 
+1.002531e+03 
+1.002514e+03 
+1.002520e+03 
+1.002508e+03 
+1.002507e+03 
+1.002500e+03 
+1.002466e+03 
+1.002500e+03 
+1.002528e+03 
+1.002484e+03 
+1.002407e+03 
+1.002341e+03 
+1.002412e+03 
+1.002316e+03 
+1.002293e+03 
+1.002266e+03 
+1.002238e+03 
+1.002263e+03 
+1.002271e+03 
+1.002213e+03 
+1.002229e+03 
+1.002271e+03 
+1.002169e+03 
+1.002241e+03 
+1.002336e+03 
+1.002391e+03 
+1.002337e+03 
+1.002401e+03 
+1.002419e+03 
+1.002421e+03 
+1.002403e+03 
+1.002416e+03 
+1.002418e+03 
+1.002378e+03 
+1.002382e+03 
+1.002376e+03 
+1.002341e+03 
+1.002328e+03 
+1.001632e+03 
+1.001636e+03 
+1.001611e+03 
+1.001618e+03 
+1.001643e+03 
+1.001653e+03 
+1.001637e+03 
+1.001648e+03 
+1.001670e+03 
+1.001673e+03 
+1.001662e+03 
+1.001658e+03 
+1.001673e+03 
+1.001669e+03 
+1.001662e+03 
+1.001656e+03 
+1.001651e+03 
+1.001656e+03 
+1.001647e+03 
+1.001642e+03 
+1.001637e+03 
+1.001629e+03 
+1.001635e+03 
+1.001626e+03 
+1.001613e+03 
+1.001621e+03 
+1.001611e+03 
+1.001631e+03 
+1.001638e+03 
+1.001603e+03 
+1.001622e+03 
+1.001601e+03 
+1.001639e+03 
+1.001634e+03 
+1.001634e+03 
+1.001623e+03 
+1.001632e+03 
+1.001584e+03 
+1.001642e+03 
+1.001637e+03 
+1.001602e+03 
+1.001625e+03 
+1.001606e+03 
+1.001648e+03 
+1.001638e+03 
+1.001604e+03 
+1.001591e+03 
+1.001634e+03 
+1.001615e+03 
+1.001590e+03 
+1.001588e+03 
+1.001601e+03 
+1.001561e+03 
+1.001684e+03 
+1.001620e+03 
+1.001588e+03 
+1.001622e+03 
+1.001579e+03 
+1.001596e+03 
+1.001598e+03 
+1.001649e+03 
+1.001574e+03 
+1.001576e+03 
+1.001575e+03 
+1.001601e+03 
+1.001584e+03 
+1.001635e+03 
+1.001592e+03 
+1.001580e+03 
+1.001605e+03 
+1.001604e+03 
+1.001615e+03 
+1.001596e+03 
+1.001592e+03 
+1.001600e+03 
+1.001576e+03 
+1.001639e+03 
+1.001636e+03 
+1.001631e+03 
+1.001640e+03 
+1.001621e+03 
+1.001590e+03 
+1.001646e+03 
+1.001661e+03 
+1.001588e+03 
+1.001630e+03 
+1.001618e+03 
+1.001637e+03 
+1.001592e+03 
+1.001598e+03 
+1.001628e+03 
+1.001606e+03 
+1.001726e+03 
+1.001513e+03 
+1.001625e+03 
+1.001602e+03 
+1.001500e+03 
+1.001688e+03 
+1.001579e+03 
+1.001620e+03 
+1.001628e+03 
+1.001662e+03 
+1.001594e+03 
+1.001620e+03 
+1.001567e+03 
+1.001672e+03 
+1.001570e+03 
+1.001632e+03 
+1.001590e+03 
+1.001561e+03 
+1.001540e+03 
+1.001597e+03 
+1.001570e+03 
+1.001588e+03 
+1.001606e+03 
+1.001637e+03 
+1.001587e+03 
+1.001622e+03 
+1.001551e+03 
+1.001605e+03 
+1.001590e+03 
+1.001568e+03 
+1.001583e+03 
+1.001570e+03 
+1.001695e+03 
+1.001661e+03 
+1.001370e+03 
+1.001575e+03 
+1.001626e+03 
+1.001521e+03 
+1.001655e+03 
+1.001507e+03 
+1.001419e+03 
+1.001637e+03 
+1.001534e+03 
+1.001490e+03 
+1.001413e+03 
+1.001519e+03 
+1.001408e+03 
+1.001425e+03 
+1.001520e+03 
+1.001510e+03 
+1.001497e+03 
+1.001576e+03 
+1.001384e+03 
+1.001599e+03 
+1.001473e+03 
+1.001373e+03 
+1.001577e+03 
+1.001385e+03 
+1.001490e+03 
+1.001488e+03 
+1.001497e+03 
+1.001460e+03 
+1.001481e+03 
+1.001502e+03 
+1.001530e+03 
+1.001403e+03 
+1.001500e+03 
+1.001462e+03 
+1.001508e+03 
+1.001435e+03 
+1.001463e+03 
+1.001447e+03 
+1.001507e+03 
+1.001449e+03 
+1.001490e+03 
+1.001567e+03 
+1.001356e+03 
+1.001486e+03 
+1.001505e+03 
+1.001319e+03 
+1.001530e+03 
+1.001461e+03 
+1.001337e+03 
+1.001510e+03 
+1.001482e+03 
+1.001499e+03 
+1.001470e+03 
+1.001517e+03 
+1.001457e+03 
+1.001573e+03 
+1.001452e+03 
+1.001424e+03 
+1.001488e+03 
+1.001427e+03 
+1.001507e+03 
+1.001541e+03 
+1.001423e+03 
+1.001604e+03 
+1.001301e+03 
+1.001534e+03 
+1.001311e+03 
+1.001499e+03 
+1.001487e+03 
+1.001347e+03 
+1.001567e+03 
+1.001618e+03 
+1.001456e+03 
+1.001453e+03 
+1.001427e+03 
+1.001426e+03 
+1.001572e+03 
+1.001112e+03 
+1.001456e+03 
+1.001511e+03 
+1.001476e+03 
+1.001597e+03 
+1.001235e+03 
+1.001361e+03 
+1.001470e+03 
+1.001342e+03 
+1.001561e+03 
+1.001501e+03 
+1.001256e+03 
+1.001213e+03 
+1.001521e+03 
+1.001402e+03 
+1.001418e+03 
+1.001377e+03 
+1.001300e+03 
+1.001333e+03 
+1.001388e+03 
+1.001471e+03 
+1.001353e+03 
+1.001471e+03 
+1.001331e+03 
+1.001212e+03 
+1.001397e+03 
+1.001365e+03 
+1.001454e+03 
+1.001414e+03 
+1.001375e+03 
+1.001287e+03 
+1.001336e+03 
+1.001399e+03 
+1.001245e+03 
+1.001469e+03 
+1.001321e+03 
+1.001403e+03 
+1.001292e+03 
+1.001434e+03 
+1.001393e+03 
+1.001286e+03 
+1.001352e+03 
+1.001421e+03 
+1.001520e+03 
+1.001284e+03 
+1.001293e+03 
+1.001307e+03 
+1.001368e+03 
+1.001336e+03 
+1.001374e+03 
+1.001435e+03 
+1.001334e+03 
+1.001432e+03 
+1.001261e+03 
+1.001268e+03 
+1.001261e+03 
+1.001241e+03 
+1.001341e+03 
+1.001282e+03 
+1.001276e+03 
+1.001320e+03 
+1.001365e+03 
+1.001184e+03 
+1.001217e+03 
+1.001270e+03 
+1.001217e+03 
+1.001338e+03 
+1.001287e+03 
+1.001097e+03 
+1.001190e+03 
+1.001477e+03 
+1.001306e+03 
+1.001131e+03 
+1.000908e+03 
+1.001045e+03 
+1.001308e+03 
+1.001051e+03 
+1.001292e+03 
+1.001290e+03 
+1.001154e+03 
+1.001196e+03 
+1.001277e+03 
+1.001148e+03 
+1.001154e+03 
+1.001196e+03 
+1.001093e+03 
+1.001267e+03 
+1.001350e+03 
+1.001181e+03 
+1.001334e+03 
+1.001130e+03 
+1.001315e+03 
+1.001261e+03 
+1.001336e+03 
+1.001036e+03 
+1.000762e+03 
+1.001571e+03 
+1.001599e+03 
+1.001069e+03 
+1.000894e+03 
+1.001218e+03 
+1.001332e+03 
+1.001238e+03 
+1.001156e+03 
+1.000981e+03 
+1.001050e+03 
+1.001234e+03 
+1.001024e+03 
+1.001191e+03 
+1.001191e+03 
+1.001290e+03 
+1.001119e+03 
+1.001232e+03 
+1.001135e+03 
+1.001317e+03 
+1.001265e+03 
+1.001314e+03 
+1.001175e+03 
+1.001313e+03 
+1.001320e+03 
+1.001629e+03 
+1.000656e+03 
+1.002235e+03 
+1.001333e+03 
+1.001356e+03 
+1.000574e+03 
+1.001226e+03 
+1.001128e+03 
+1.001185e+03 
+1.001297e+03 
+1.001382e+03 
+1.001220e+03 
+1.000959e+03 
+1.001084e+03 
+1.001359e+03 
+1.001438e+03 
+1.001203e+03 
+1.001005e+03 
+1.001180e+03 
+1.000666e+03 
+1.001619e+03 
+1.000984e+03 
+1.001029e+03 
+1.001091e+03 
+1.000748e+03 
+1.001265e+03 
+1.001135e+03 
+1.000808e+03 
+1.001371e+03 
+1.001271e+03 
+1.000614e+03 
+1.000608e+03 
+1.001443e+03 
+1.000828e+03 
+1.001107e+03 
+1.001322e+03 
+1.000786e+03 
+1.000884e+03 
+1.001109e+03 
+1.001261e+03 
+1.000928e+03 
+1.001185e+03 
+1.000746e+03 
+1.000908e+03 
+1.000950e+03 
+1.001202e+03 
+1.001139e+03 
+1.000924e+03 
+1.000826e+03 
+1.000854e+03 
+1.001045e+03 
+1.001230e+03 
+1.001097e+03 
+1.000880e+03 
+1.000520e+03 
+1.001240e+03 
+1.000888e+03 
+1.000932e+03 
+1.000972e+03 
+1.000803e+03 
+1.001543e+03 
+1.000839e+03 
+1.000839e+03 
+1.000303e+03 
+1.001520e+03 
+1.000683e+03 
+1.001081e+03 
+1.000922e+03 
+1.000741e+03 
+1.000941e+03 
+1.000919e+03 
+1.001206e+03 
+1.000983e+03 
+1.001416e+03 
+1.000833e+03 
+1.001423e+03 
+1.000856e+03 
+1.001178e+03 
+1.000966e+03 
+1.001624e+03 
+1.001256e+03 
+1.001134e+03 
+1.001115e+03 
+1.001410e+03 
+1.000994e+03 
+1.001240e+03 
+1.001307e+03 
+1.001115e+03 
+1.001374e+03 
+1.001347e+03 
+1.001150e+03 
+1.001162e+03 
+1.001639e+03 
+1.001214e+03 
+1.001435e+03 
+1.001353e+03 
+1.001296e+03 
+1.001594e+03 
+1.001370e+03 
+1.001615e+03 
+1.000972e+03 
+1.001430e+03 
+1.001577e+03 
+1.000948e+03 
+1.001624e+03 
+1.001479e+03 
+1.001564e+03 
+1.001353e+03 
+1.001577e+03 
+1.001387e+03 
+1.001595e+03 
+1.001578e+03 
+1.001660e+03 
+1.001865e+03 
+1.001292e+03 
+1.001631e+03 
+1.001863e+03 
+1.001567e+03 
+1.001596e+03 
+1.001945e+03 
+1.001848e+03 
+1.001671e+03 
+1.001542e+03 
+1.001630e+03 
+1.002018e+03 
+1.002193e+03 
+1.002070e+03 
+1.002041e+03 
+1.001720e+03 
+1.002163e+03 
+1.001987e+03 
+1.002353e+03 
+1.002092e+03 
+1.001970e+03 
+1.002475e+03 
+1.002188e+03 
+1.002287e+03 
+1.002167e+03 
+1.002252e+03 
+1.002203e+03 
+1.002297e+03 
+1.002435e+03 
+1.002399e+03 
+1.002428e+03 
+1.002692e+03 
+1.002795e+03 
+1.002174e+03 
+1.002657e+03 
+1.002582e+03 
+1.002310e+03 
+1.002390e+03 
+1.002451e+03 
+1.002530e+03 
+1.002482e+03 
+1.002499e+03 
+1.002446e+03 
+1.002638e+03 
+1.002538e+03 
+1.002406e+03 
+1.002451e+03 
+1.002471e+03 
+1.002256e+03 
+1.002458e+03 
+1.002423e+03 
+1.002104e+03 
+1.002390e+03 
+1.002239e+03 
+1.002371e+03 
+1.002334e+03 
+1.002287e+03 
+1.001901e+03 
+1.002289e+03 
+1.002362e+03 
+1.002185e+03 
+1.002189e+03 
+1.002293e+03 
+1.002435e+03 
+1.002278e+03 
+1.002034e+03 
+1.002368e+03 
+1.002450e+03 
+1.002323e+03 
+1.002006e+03 
+1.002371e+03 
+1.002239e+03 
+1.002234e+03 
+1.002078e+03 
+1.002106e+03 
+1.001577e+03 
+1.001585e+03 
+1.001531e+03 
+1.001537e+03 
+1.001612e+03 
+1.001606e+03 
+1.001551e+03 
+1.001549e+03 
+1.001578e+03 
+1.001625e+03 
+1.001574e+03 
+1.001623e+03 
+1.001616e+03 
+1.001566e+03 
+1.001557e+03 
+1.001607e+03 
+1.001543e+03 
+1.001482e+03 
+1.001597e+03 
+1.001588e+03 
+1.001534e+03 
+1.001529e+03 
+1.001571e+03 
+1.001584e+03 
+1.001517e+03 
+1.001514e+03 
+1.001444e+03 
+1.001468e+03 
+1.001563e+03 
+1.001491e+03 
+1.001552e+03 
+1.001585e+03 
+1.001441e+03 
+1.001504e+03 
+1.001438e+03 
+1.001576e+03 
+1.001546e+03 
+1.001551e+03 
+1.001478e+03 
+1.001428e+03 
+1.001486e+03 
+1.001571e+03 
+1.001500e+03 
+1.001546e+03 
+1.001522e+03 
+1.001445e+03 
+1.001446e+03 
+1.001576e+03 
+1.001509e+03 
+1.001504e+03 
+1.001546e+03 
+1.001425e+03 
+1.001564e+03 
+1.001481e+03 
+1.001528e+03 
+1.001585e+03 
+1.001513e+03 
+1.001452e+03 
+1.001534e+03 
+1.001482e+03 
+1.001497e+03 
+1.001565e+03 
+1.001548e+03 
+1.001435e+03 
+1.001473e+03 
+1.001554e+03 
+1.001475e+03 
+1.001504e+03 
+1.001571e+03 
+1.001471e+03 
+1.001444e+03 
+1.001506e+03 
+1.001469e+03 
+1.001538e+03 
+1.001420e+03 
+1.001486e+03 
+1.001563e+03 
+1.001410e+03 
+1.001487e+03 
+1.001539e+03 
+1.001426e+03 
+1.001540e+03 
+1.001515e+03 
+1.001416e+03 
+1.001513e+03 
+1.001538e+03 
+1.001531e+03 
+1.001576e+03 
+1.001482e+03 
+1.001542e+03 
+1.001456e+03 
+1.001581e+03 
+1.001514e+03 
+1.001441e+03 
+1.001546e+03 
+1.001505e+03 
+1.001545e+03 
+1.001516e+03 
+1.001561e+03 
+1.001423e+03 
+1.001423e+03 
+1.001508e+03 
+1.001577e+03 
+1.001467e+03 
+1.001550e+03 
+1.001621e+03 
+1.001468e+03 
+1.001500e+03 
+1.001531e+03 
+1.001572e+03 
+1.001450e+03 
+1.001521e+03 
+1.001584e+03 
+1.001467e+03 
+1.001510e+03 
+1.001467e+03 
+1.001531e+03 
+1.001406e+03 
+1.001584e+03 
+1.001481e+03 
+1.001410e+03 
+1.001529e+03 
+1.001595e+03 
+1.001478e+03 
+1.001529e+03 
+1.001589e+03 
+1.001433e+03 
+1.001525e+03 
+1.001581e+03 
+1.001534e+03 
+1.001411e+03 
+1.001552e+03 
+1.001486e+03 
+1.001484e+03 
+1.001534e+03 
+1.001426e+03 
+1.001383e+03 
+1.001547e+03 
+1.001490e+03 
+1.001532e+03 
+1.001518e+03 
+1.001546e+03 
+1.001413e+03 
+1.001508e+03 
+1.001430e+03 
+1.001507e+03 
+1.001487e+03 
+1.001401e+03 
+1.001548e+03 
+1.001460e+03 
+1.001406e+03 
+1.001477e+03 
+1.001428e+03 
+1.001513e+03 
+1.001582e+03 
+1.001423e+03 
+1.001463e+03 
+1.001511e+03 
+1.001431e+03 
+1.001464e+03 
+1.001480e+03 
+1.001452e+03 
+1.001607e+03 
+1.001388e+03 
+1.001499e+03 
+1.001524e+03 
+1.001449e+03 
+1.001393e+03 
+1.001415e+03 
+1.001416e+03 
+1.001452e+03 
+1.001495e+03 
+1.001516e+03 
+1.001404e+03 
+1.001298e+03 
+1.001428e+03 
+1.001438e+03 
+1.001351e+03 
+1.001450e+03 
+1.001314e+03 
+1.001508e+03 
+1.001358e+03 
+1.001424e+03 
+1.001410e+03 
+1.001298e+03 
+1.001510e+03 
+1.001352e+03 
+1.001383e+03 
+1.001348e+03 
+1.001491e+03 
+1.001349e+03 
+1.001417e+03 
+1.001367e+03 
+1.001448e+03 
+1.001413e+03 
+1.001297e+03 
+1.001418e+03 
+1.001369e+03 
+1.001369e+03 
+1.001367e+03 
+1.001414e+03 
+1.001351e+03 
+1.001399e+03 
+1.001474e+03 
+1.001303e+03 
+1.001411e+03 
+1.001409e+03 
+1.001277e+03 
+1.001364e+03 
+1.001399e+03 
+1.001343e+03 
+1.001399e+03 
+1.001461e+03 
+1.001316e+03 
+1.001362e+03 
+1.001367e+03 
+1.001345e+03 
+1.001378e+03 
+1.001261e+03 
+1.001489e+03 
+1.001370e+03 
+1.001345e+03 
+1.001379e+03 
+1.001399e+03 
+1.001437e+03 
+1.001291e+03 
+1.001358e+03 
+1.001340e+03 
+1.001330e+03 
+1.001358e+03 
+1.001283e+03 
+1.001411e+03 
+1.001413e+03 
+1.001364e+03 
+1.001448e+03 
+1.001481e+03 
+1.001325e+03 
+1.001452e+03 
+1.001417e+03 
+1.001371e+03 
+1.001396e+03 
+1.001276e+03 
+1.001286e+03 
+1.001375e+03 
+1.001400e+03 
+1.001263e+03 
+1.001357e+03 
+1.001365e+03 
+1.001377e+03 
+1.001458e+03 
+1.001413e+03 
+1.001206e+03 
+1.001402e+03 
+1.001374e+03 
+1.001446e+03 
+1.001414e+03 
+1.001197e+03 
+1.001408e+03 
+1.001393e+03 
+1.001413e+03 
+1.001318e+03 
+1.001325e+03 
+1.001303e+03 
+1.001483e+03 
+1.001401e+03 
+1.001408e+03 
+1.001418e+03 
+1.001248e+03 