# vtk DataFile Version 2.0
Unstructured Grid Example
ASCII
DATASET UNSTRUCTURED_GRID
POINTS 6462 float
-6.000000e-02 -6.000000e-02 +0.000000e+00 
-4.000000e-02 -6.000000e-02 +0.000000e+00 
-6.000000e-02 -4.000000e-02 +0.000000e+00 
-4.000000e-02 -4.000000e-02 +0.000000e+00 
-2.000000e-02 -6.000000e-02 +0.000000e+00 
+0.000000e+00 -6.000000e-02 +0.000000e+00 
-2.000000e-02 -4.000000e-02 +0.000000e+00 
+0.000000e+00 -4.000000e-02 +0.000000e+00 
+2.000000e-02 -6.000000e-02 +0.000000e+00 
+4.000000e-02 -6.000000e-02 +0.000000e+00 
+2.000000e-02 -4.000000e-02 +0.000000e+00 
+4.000000e-02 -4.000000e-02 +0.000000e+00 
+6.000000e-02 -6.000000e-02 +0.000000e+00 
+8.000000e-02 -6.000000e-02 +0.000000e+00 
+1.000000e-01 -6.000000e-02 +0.000000e+00 
+6.000000e-02 -4.000000e-02 +0.000000e+00 
+8.000000e-02 -4.000000e-02 +0.000000e+00 
+1.000000e-01 -4.000000e-02 +0.000000e+00 
+1.200000e-01 -6.000000e-02 +0.000000e+00 
+1.400000e-01 -6.000000e-02 +0.000000e+00 
+1.200000e-01 -4.000000e-02 +0.000000e+00 
+1.400000e-01 -4.000000e-02 +0.000000e+00 
+1.600000e-01 -6.000000e-02 +0.000000e+00 
+1.800000e-01 -6.000000e-02 +0.000000e+00 
+2.000000e-01 -6.000000e-02 +0.000000e+00 
+1.600000e-01 -4.000000e-02 +0.000000e+00 
+1.800000e-01 -4.000000e-02 +0.000000e+00 
+2.000000e-01 -4.000000e-02 +0.000000e+00 
+2.200000e-01 -6.000000e-02 +0.000000e+00 
+2.400000e-01 -6.000000e-02 +0.000000e+00 
+2.200000e-01 -4.000000e-02 +0.000000e+00 
+2.400000e-01 -4.000000e-02 +0.000000e+00 
+2.600000e-01 -6.000000e-02 +0.000000e+00 
+2.800000e-01 -6.000000e-02 +0.000000e+00 
+2.600000e-01 -4.000000e-02 +0.000000e+00 
+2.800000e-01 -4.000000e-02 +0.000000e+00 
+3.000000e-01 -6.000000e-02 +0.000000e+00 
+3.200000e-01 -6.000000e-02 +0.000000e+00 
+3.400000e-01 -6.000000e-02 +0.000000e+00 
+3.000000e-01 -4.000000e-02 +0.000000e+00 
+3.200000e-01 -4.000000e-02 +0.000000e+00 
+3.400000e-01 -4.000000e-02 +0.000000e+00 
+3.600000e-01 -6.000000e-02 +0.000000e+00 
+3.800000e-01 -6.000000e-02 +0.000000e+00 
+3.600000e-01 -4.000000e-02 +0.000000e+00 
+3.800000e-01 -4.000000e-02 +0.000000e+00 
+4.000000e-01 -6.000000e-02 +0.000000e+00 
+4.200000e-01 -6.000000e-02 +0.000000e+00 
+4.400000e-01 -6.000000e-02 +0.000000e+00 
+4.000000e-01 -4.000000e-02 +0.000000e+00 
+4.200000e-01 -4.000000e-02 +0.000000e+00 
+4.400000e-01 -4.000000e-02 +0.000000e+00 
+4.600000e-01 -6.000000e-02 +0.000000e+00 
+4.800000e-01 -6.000000e-02 +0.000000e+00 
+4.600000e-01 -4.000000e-02 +0.000000e+00 
+4.800000e-01 -4.000000e-02 +0.000000e+00 
+5.000000e-01 -6.000000e-02 +0.000000e+00 
+5.200000e-01 -6.000000e-02 +0.000000e+00 
+5.000000e-01 -4.000000e-02 +0.000000e+00 
+5.200000e-01 -4.000000e-02 +0.000000e+00 
+5.400000e-01 -6.000000e-02 +0.000000e+00 
+5.600000e-01 -6.000000e-02 +0.000000e+00 
+5.800000e-01 -6.000000e-02 +0.000000e+00 
+5.400000e-01 -4.000000e-02 +0.000000e+00 
+5.600000e-01 -4.000000e-02 +0.000000e+00 
+5.800000e-01 -4.000000e-02 +0.000000e+00 
+6.000000e-01 -6.000000e-02 +0.000000e+00 
+6.200000e-01 -6.000000e-02 +0.000000e+00 
+6.000000e-01 -4.000000e-02 +0.000000e+00 
+6.200000e-01 -4.000000e-02 +0.000000e+00 
+6.400000e-01 -6.000000e-02 +0.000000e+00 
+6.600000e-01 -6.000000e-02 +0.000000e+00 
+6.800000e-01 -6.000000e-02 +0.000000e+00 
+6.400000e-01 -4.000000e-02 +0.000000e+00 
+6.600000e-01 -4.000000e-02 +0.000000e+00 
+6.800000e-01 -4.000000e-02 +0.000000e+00 
+7.000000e-01 -6.000000e-02 +0.000000e+00 
+7.200000e-01 -6.000000e-02 +0.000000e+00 
+7.000000e-01 -4.000000e-02 +0.000000e+00 
+7.200000e-01 -4.000000e-02 +0.000000e+00 
+7.400000e-01 -6.000000e-02 +0.000000e+00 
+7.600000e-01 -6.000000e-02 +0.000000e+00 
+7.400000e-01 -4.000000e-02 +0.000000e+00 
+7.600000e-01 -4.000000e-02 +0.000000e+00 
+7.800000e-01 -6.000000e-02 +0.000000e+00 
+8.000000e-01 -6.000000e-02 +0.000000e+00 
+8.200000e-01 -6.000000e-02 +0.000000e+00 
+7.800000e-01 -4.000000e-02 +0.000000e+00 
+8.000000e-01 -4.000000e-02 +0.000000e+00 
+8.200000e-01 -4.000000e-02 +0.000000e+00 
+8.400000e-01 -6.000000e-02 +0.000000e+00 
+8.600000e-01 -6.000000e-02 +0.000000e+00 
+8.400000e-01 -4.000000e-02 +0.000000e+00 
+8.600000e-01 -4.000000e-02 +0.000000e+00 
+8.800000e-01 -6.000000e-02 +0.000000e+00 
+9.000000e-01 -6.000000e-02 +0.000000e+00 
+8.800000e-01 -4.000000e-02 +0.000000e+00 
+9.000000e-01 -4.000000e-02 +0.000000e+00 
+9.200000e-01 -6.000000e-02 +0.000000e+00 
+9.400000e-01 -6.000000e-02 +0.000000e+00 
+9.600000e-01 -6.000000e-02 +0.000000e+00 
+9.200000e-01 -4.000000e-02 +0.000000e+00 
+9.400000e-01 -4.000000e-02 +0.000000e+00 
+9.600000e-01 -4.000000e-02 +0.000000e+00 
+9.800000e-01 -6.000000e-02 +0.000000e+00 
+1.000000e+00 -6.000000e-02 +0.000000e+00 
+9.800000e-01 -4.000000e-02 +0.000000e+00 
+1.000000e+00 -4.000000e-02 +0.000000e+00 
+1.020000e+00 -6.000000e-02 +0.000000e+00 
+1.040000e+00 -6.000000e-02 +0.000000e+00 
+1.060000e+00 -6.000000e-02 +0.000000e+00 
+1.020000e+00 -4.000000e-02 +0.000000e+00 
+1.040000e+00 -4.000000e-02 +0.000000e+00 
+1.060000e+00 -4.000000e-02 +0.000000e+00 
+1.080000e+00 -6.000000e-02 +0.000000e+00 
+1.100000e+00 -6.000000e-02 +0.000000e+00 
+1.080000e+00 -4.000000e-02 +0.000000e+00 
+1.100000e+00 -4.000000e-02 +0.000000e+00 
+1.120000e+00 -6.000000e-02 +0.000000e+00 
+1.140000e+00 -6.000000e-02 +0.000000e+00 
+1.160000e+00 -6.000000e-02 +0.000000e+00 
+1.120000e+00 -4.000000e-02 +0.000000e+00 
+1.140000e+00 -4.000000e-02 +0.000000e+00 
+1.160000e+00 -4.000000e-02 +0.000000e+00 
+1.180000e+00 -6.000000e-02 +0.000000e+00 
+1.200000e+00 -6.000000e-02 +0.000000e+00 
+1.180000e+00 -4.000000e-02 +0.000000e+00 
+1.200000e+00 -4.000000e-02 +0.000000e+00 
+1.220000e+00 -6.000000e-02 +0.000000e+00 
+1.240000e+00 -6.000000e-02 +0.000000e+00 
+1.220000e+00 -4.000000e-02 +0.000000e+00 
+1.240000e+00 -4.000000e-02 +0.000000e+00 
+1.260000e+00 -6.000000e-02 +0.000000e+00 
+1.280000e+00 -6.000000e-02 +0.000000e+00 
+1.300000e+00 -6.000000e-02 +0.000000e+00 
+1.260000e+00 -4.000000e-02 +0.000000e+00 
+1.280000e+00 -4.000000e-02 +0.000000e+00 
+1.300000e+00 -4.000000e-02 +0.000000e+00 
+1.320000e+00 -6.000000e-02 +0.000000e+00 
+1.340000e+00 -6.000000e-02 +0.000000e+00 
+1.320000e+00 -4.000000e-02 +0.000000e+00 
+1.340000e+00 -4.000000e-02 +0.000000e+00 
+1.360000e+00 -6.000000e-02 +0.000000e+00 
+1.380000e+00 -6.000000e-02 +0.000000e+00 
+1.400000e+00 -6.000000e-02 +0.000000e+00 
+1.360000e+00 -4.000000e-02 +0.000000e+00 
+1.380000e+00 -4.000000e-02 +0.000000e+00 
+1.400000e+00 -4.000000e-02 +0.000000e+00 
+1.420000e+00 -6.000000e-02 +0.000000e+00 
+1.440000e+00 -6.000000e-02 +0.000000e+00 
+1.420000e+00 -4.000000e-02 +0.000000e+00 
+1.440000e+00 -4.000000e-02 +0.000000e+00 
+1.460000e+00 -6.000000e-02 +0.000000e+00 
+1.480000e+00 -6.000000e-02 +0.000000e+00 
+1.460000e+00 -4.000000e-02 +0.000000e+00 
+1.480000e+00 -4.000000e-02 +0.000000e+00 
+1.500000e+00 -6.000000e-02 +0.000000e+00 
+1.520000e+00 -6.000000e-02 +0.000000e+00 
+1.540000e+00 -6.000000e-02 +0.000000e+00 
+1.500000e+00 -4.000000e-02 +0.000000e+00 
+1.520000e+00 -4.000000e-02 +0.000000e+00 
+1.540000e+00 -4.000000e-02 +0.000000e+00 
+1.560000e+00 -6.000000e-02 +0.000000e+00 
+1.580000e+00 -6.000000e-02 +0.000000e+00 
+1.560000e+00 -4.000000e-02 +0.000000e+00 
+1.580000e+00 -4.000000e-02 +0.000000e+00 
+1.600000e+00 -6.000000e-02 +0.000000e+00 
+1.620000e+00 -6.000000e-02 +0.000000e+00 
+1.640000e+00 -6.000000e-02 +0.000000e+00 
+1.600000e+00 -4.000000e-02 +0.000000e+00 
+1.620000e+00 -4.000000e-02 +0.000000e+00 
+1.640000e+00 -4.000000e-02 +0.000000e+00 
+1.660000e+00 -6.000000e-02 +0.000000e+00 
+1.680000e+00 -6.000000e-02 +0.000000e+00 
+1.660000e+00 -4.000000e-02 +0.000000e+00 
+1.680000e+00 -4.000000e-02 +0.000000e+00 
+1.700000e+00 -6.000000e-02 +0.000000e+00 
+1.720000e+00 -6.000000e-02 +0.000000e+00 
+1.700000e+00 -4.000000e-02 +0.000000e+00 
+1.720000e+00 -4.000000e-02 +0.000000e+00 
+1.740000e+00 -6.000000e-02 +0.000000e+00 
+1.760000e+00 -6.000000e-02 +0.000000e+00 
+1.780000e+00 -6.000000e-02 +0.000000e+00 
+1.740000e+00 -4.000000e-02 +0.000000e+00 
+1.760000e+00 -4.000000e-02 +0.000000e+00 
+1.780000e+00 -4.000000e-02 +0.000000e+00 
+1.800000e+00 -6.000000e-02 +0.000000e+00 
+1.820000e+00 -6.000000e-02 +0.000000e+00 
+1.800000e+00 -4.000000e-02 +0.000000e+00 
+1.820000e+00 -4.000000e-02 +0.000000e+00 
+1.840000e+00 -6.000000e-02 +0.000000e+00 
+1.860000e+00 -6.000000e-02 +0.000000e+00 
+1.880000e+00 -6.000000e-02 +0.000000e+00 
+1.840000e+00 -4.000000e-02 +0.000000e+00 
+1.860000e+00 -4.000000e-02 +0.000000e+00 
+1.880000e+00 -4.000000e-02 +0.000000e+00 
+1.900000e+00 -6.000000e-02 +0.000000e+00 
+1.920000e+00 -6.000000e-02 +0.000000e+00 
+1.900000e+00 -4.000000e-02 +0.000000e+00 
+1.920000e+00 -4.000000e-02 +0.000000e+00 
+1.940000e+00 -6.000000e-02 +0.000000e+00 
+1.960000e+00 -6.000000e-02 +0.000000e+00 
+1.940000e+00 -4.000000e-02 +0.000000e+00 
+1.960000e+00 -4.000000e-02 +0.000000e+00 
+1.980000e+00 -6.000000e-02 +0.000000e+00 
+2.000000e+00 -6.000000e-02 +0.000000e+00 
+2.020000e+00 -6.000000e-02 +0.000000e+00 
+1.980000e+00 -4.000000e-02 +0.000000e+00 
+2.000000e+00 -4.000000e-02 +0.000000e+00 
+2.020000e+00 -4.000000e-02 +0.000000e+00 
+2.040000e+00 -6.000000e-02 +0.000000e+00 
+2.060000e+00 -6.000000e-02 +0.000000e+00 
+2.040000e+00 -4.000000e-02 +0.000000e+00 
+2.060000e+00 -4.000000e-02 +0.000000e+00 
+2.080000e+00 -6.000000e-02 +0.000000e+00 
+2.100000e+00 -6.000000e-02 +0.000000e+00 
+2.120000e+00 -6.000000e-02 +0.000000e+00 
+2.080000e+00 -4.000000e-02 +0.000000e+00 
+2.100000e+00 -4.000000e-02 +0.000000e+00 
+2.120000e+00 -4.000000e-02 +0.000000e+00 
+2.140000e+00 -6.000000e-02 +0.000000e+00 
+2.160000e+00 -6.000000e-02 +0.000000e+00 
+2.140000e+00 -4.000000e-02 +0.000000e+00 
+2.160000e+00 -4.000000e-02 +0.000000e+00 
+2.180000e+00 -6.000000e-02 +0.000000e+00 
+2.200000e+00 -6.000000e-02 +0.000000e+00 
+2.180000e+00 -4.000000e-02 +0.000000e+00 
+2.200000e+00 -4.000000e-02 +0.000000e+00 
+2.220000e+00 -6.000000e-02 +0.000000e+00 
+2.240000e+00 -6.000000e-02 +0.000000e+00 
[...]
POINT_DATA 6462 
SCALARS density float 1 
LOOKUP_TABLE default
+1.001869e+03 
+1.001870e+03 
+1.001864e+03 
+1.001864e+03 
+1.001872e+03 
+1.001874e+03 
+1.001866e+03 
+1.001867e+03 
+1.001876e+03 
+1.001876e+03 
+1.001869e+03 
+1.001869e+03 
+1.001875e+03 
+1.001870e+03 
+1.001862e+03 
+1.001868e+03 
+1.001863e+03 
+1.001854e+03 
+1.001851e+03 
+1.001839e+03 
+1.001843e+03 
+1.001830e+03 
+1.001827e+03 
+1.001813e+03 
+1.001799e+03 
+1.001818e+03 
+1.001804e+03 
+1.001789e+03 
+1.001786e+03 
+1.001776e+03 
+1.001774e+03 
+1.001763e+03 
+1.001769e+03 
+1.001763e+03 
+1.001762e+03 
+1.001752e+03 
+1.001758e+03 
+1.001757e+03 
+1.001756e+03 
+1.001746e+03 
+1.001748e+03 
+1.001753e+03 
+1.001750e+03 
+1.001738e+03 
+1.001747e+03 
+1.001737e+03 
+1.001720e+03 
+1.001704e+03 
+1.001693e+03 
+1.001712e+03 
+1.001690e+03 
+1.001685e+03 
+1.001684e+03 
+1.001675e+03 
+1.001679e+03 
+1.001669e+03 
+1.001665e+03 
+1.001658e+03 
+1.001659e+03 
+1.001654e+03 
+1.001650e+03 
+1.001646e+03 
+1.001647e+03 
+1.001640e+03 
+1.001642e+03 
+1.001638e+03 
+1.001650e+03 
+1.001653e+03 
+1.001650e+03 
+1.001655e+03 
+1.001655e+03 
+1.001658e+03 
+1.001658e+03 
+1.001648e+03 
+1.001664e+03 
+1.001662e+03 
+1.001653e+03 
+1.001645e+03 
+1.001659e+03 
+1.001645e+03 
+1.001638e+03 
+1.001631e+03 
+1.001644e+03 
+1.001628e+03 
+1.001625e+03 
+1.001614e+03 
+1.001609e+03 
+1.001645e+03 
+1.001609e+03 
+1.001613e+03 
+1.001607e+03 
+1.001608e+03 
+1.001611e+03 
+1.001615e+03 
+1.001609e+03 
+1.001608e+03 
+1.001621e+03 
+1.001621e+03 
+1.001605e+03 
+1.001604e+03 
+1.001607e+03 
+1.001609e+03 
+1.001613e+03 
+1.001613e+03 
+1.001612e+03 
+1.001618e+03 
+1.001617e+03 
+1.001630e+03 
+1.001622e+03 
+1.001629e+03 
+1.001635e+03 
+1.001628e+03 
+1.001635e+03 
+1.001649e+03 
+1.001636e+03 
+1.001632e+03 
+1.001648e+03 
+1.001641e+03 
+1.001626e+03 
+1.001625e+03 
+1.001629e+03 
+1.001628e+03 
+1.001624e+03 
+1.001636e+03 
+1.001634e+03 
+1.001633e+03 
+1.001645e+03 
+1.001639e+03 
+1.001625e+03 
+1.001608e+03 
+1.001641e+03 
+1.001609e+03 
+1.001592e+03 
+1.001582e+03 
+1.001571e+03 
+1.001581e+03 
+1.001589e+03 
+1.001555e+03 
+1.001569e+03 
+1.001570e+03 
+1.001562e+03 
+1.001565e+03 
+1.001571e+03 
+1.001567e+03 
+1.001560e+03 
+1.001568e+03 
+1.001564e+03 
+1.001555e+03 
+1.001547e+03 
+1.001532e+03 
+1.001545e+03 
+1.001514e+03 
+1.001526e+03 
+1.001524e+03 
+1.001515e+03 
+1.001518e+03 
+1.001521e+03 
+1.001518e+03 
+1.001515e+03 
+1.001515e+03 
+1.001508e+03 
+1.001517e+03 
+1.001505e+03 
+1.001494e+03 
+1.001505e+03 
+1.001482e+03 
+1.001490e+03 
+1.001492e+03 
+1.001491e+03 
+1.001478e+03 
+1.001495e+03 
+1.001491e+03 
+1.001490e+03 
+1.001497e+03 
+1.001480e+03 
+1.001501e+03 
+1.001500e+03 
+1.001492e+03 
+1.001509e+03 
+1.001500e+03 
+1.001474e+03 
+1.001449e+03 
+1.001437e+03 
+1.001494e+03 
+1.001431e+03 
+1.001423e+03 
+1.001441e+03 
+1.001453e+03 
+1.001434e+03 
+1.001462e+03 
+1.001459e+03 
+1.001460e+03 
+1.001463e+03 
+1.001472e+03 
+1.001455e+03 
+1.001463e+03 
+1.001470e+03 
+1.001474e+03 
+1.001462e+03 
+1.001514e+03 
+1.001457e+03 
+1.001448e+03 
+1.001436e+03 
+1.001442e+03 
+1.001456e+03 
+1.001482e+03 
+1.001501e+03 
+1.001438e+03 
+1.001481e+03 
+1.001521e+03 
+1.001497e+03 
+1.001470e+03 
+1.001506e+03 
+1.001488e+03 
+1.001426e+03 
+1.001386e+03 
+1.001370e+03 
+1.001412e+03 
+1.001355e+03 
+1.001337e+03 
+1.001375e+03 
+1.001386e+03 
+1.001360e+03 
+1.001389e+03 
+1.001386e+03 
+1.001379e+03 
+1.001382e+03 
+1.001365e+03 
+1.001371e+03 
+1.001359e+03 
+1.001350e+03 
+1.001365e+03 
+1.001350e+03 
+1.001323e+03 
+1.001349e+03 
+1.001350e+03 
+1.001339e+03 
+1.001347e+03 
+1.001345e+03 
+1.001340e+03 
+1.001325e+03 
+1.001326e+03 
+1.001334e+03 
+1.001336e+03 
+1.001294e+03 
+1.001260e+03 
+1.001278e+03 
+1.001253e+03 
+1.001224e+03 
+1.001203e+03 
+1.001199e+03 
+1.001180e+03 
+1.001199e+03 
+1.001207e+03 
+1.001227e+03 
+1.001184e+03 
+1.001188e+03 
+1.001227e+03 
+1.001243e+03 
+1.001247e+03 
+1.001255e+03 
+1.001277e+03 
+1.001233e+03 
+1.001217e+03 
+1.001209e+03 
+1.001238e+03 
+1.001222e+03 
+1.001214e+03 
+1.001208e+03 
+1.001211e+03 
+1.001230e+03 
+1.001228e+03 
+1.001216e+03 
+1.001214e+03 
+1.001253e+03 
+1.001238e+03 
+1.001212e+03 
+1.001219e+03 
+1.001216e+03 
+1.001224e+03 
+1.001265e+03 
+1.001253e+03 
+1.001208e+03 
+1.001211e+03 
+1.001229e+03 
+1.001230e+03 
+1.001219e+03 
+1.001207e+03 
+1.001188e+03 
+1.001280e+03 
+1.001257e+03 
+1.001194e+03 
+1.001179e+03 
+1.001164e+03 
+1.001231e+03 
+1.001209e+03 
+1.001147e+03 
+1.001146e+03 
+1.001146e+03 
+1.001206e+03 
+1.001144e+03 
+1.001163e+03 
+1.001184e+03 
+1.001147e+03 
+1.001209e+03 
+1.001207e+03 
+1.001202e+03 
+1.001194e+03 
+1.001299e+03 
+1.001206e+03 
+1.001198e+03 
+1.001196e+03 
+1.001163e+03 
+1.001247e+03 
+1.001286e+03 
+1.001197e+03 
+1.001135e+03 
+1.001120e+03 
+1.001176e+03 
+1.001156e+03 
+1.001120e+03 
+1.001126e+03 
+1.001164e+03 
+1.001140e+03 
+1.001139e+03 
+1.001136e+03 
+1.001129e+03 
+1.001216e+03 
+1.001160e+03 
+1.001175e+03 
+1.001118e+03 
+1.001108e+03 
+1.001151e+03 
+1.001136e+03 
+1.001104e+03 
+1.001106e+03 
+1.001120e+03 
+1.001141e+03 
+1.001115e+03 
+1.001183e+03 
+1.001128e+03 
+1.001136e+03 
+1.001155e+03 
+1.001164e+03 
+1.001139e+03 
+1.001109e+03 
+1.001226e+03 
+1.001126e+03 
+1.001082e+03 
+1.001074e+03 
+1.001059e+03 
+1.001065e+03 
+1.001129e+03 
+1.001077e+03 
+1.001028e+03 
+1.000977e+03 
+1.001101e+03 
+1.000980e+03 
+1.000945e+03 
+1.000951e+03 
+1.000980e+03 
+1.000952e+03 
+1.000940e+03 
+1.001002e+03 
+1.001003e+03 
+1.000994e+03 
+1.001093e+03 
+1.001020e+03 
+1.000968e+03 
+1.000946e+03 
+1.001006e+03 
+1.000939e+03 
+1.000971e+03 
+1.001044e+03 
+1.001126e+03 
+1.000950e+03 
+1.001051e+03 
+1.001215e+03 
+1.001155e+03 
+1.001143e+03 
+1.001201e+03 
+1.001173e+03 
+1.001147e+03 
+1.001202e+03 
+1.001226e+03 
+1.001058e+03 
+1.001267e+03 
+1.001260e+03 
+1.001210e+03 
+1.001163e+03 
+1.001239e+03 
+1.001159e+03 
+1.001113e+03 
+1.001078e+03 
+1.001082e+03 
+1.001071e+03 
+1.001038e+03 
+1.000995e+03 
+1.000930e+03 
+1.001023e+03 
+1.001003e+03 
+1.000937e+03 
+1.000860e+03 
+1.000840e+03 
+1.000798e+03 
+1.000810e+03 
+1.000841e+03 
+1.000834e+03 
+1.000777e+03 
+1.000838e+03 
+1.000913e+03 
+1.000787e+03 
+1.000726e+03 
+1.000727e+03 
+1.000709e+03 
+1.000701e+03 
+1.000765e+03 
+1.000816e+03 
+1.000770e+03 
+1.000840e+03 
+1.000844e+03 
+1.000858e+03 
+1.000876e+03 
+1.000872e+03 
+1.000850e+03 
+1.000857e+03 
+1.000919e+03 
+1.000987e+03 
+1.000899e+03 
+1.000978e+03 
+1.001064e+03 
+1.001148e+03 
+1.001051e+03 
+1.001183e+03 
+1.001216e+03 
+1.001280e+03 
+1.001315e+03 
+1.001213e+03 
+1.001335e+03 
+1.001341e+03 
+1.001340e+03 
+1.001347e+03 
+1.001357e+03 
+1.001409e+03 
+1.001341e+03 
+1.001397e+03 
+1.001463e+03 
+1.001246e+03 
+1.001409e+03 
+1.001454e+03 
+1.001536e+03 
+1.001573e+03 
+1.001618e+03 
+1.001576e+03 
+1.001606e+03 
+1.001618e+03 
+1.001638e+03 
+1.001677e+03 
+1.001649e+03 
+1.001686e+03 
+1.001653e+03 
+1.001640e+03 
+1.001726e+03 
+1.001708e+03 
+1.001612e+03 
+1.001611e+03 
+1.001626e+03 
+1.001603e+03 
+1.001646e+03 
+1.001673e+03 
+1.001649e+03 
+1.001697e+03 
+1.001768e+03 
+1.001685e+03 
+1.001641e+03 
+1.001706e+03 
+1.001604e+03 
+1.001707e+03 
+1.001812e+03 
+1.001913e+03 
+1.001861e+03 
+1.001980e+03 
+1.001992e+03 
+1.002058e+03 
+1.002111e+03 
+1.002048e+03 
+1.002114e+03 
+1.002177e+03 
+1.002142e+03 
+1.002172e+03 
+1.002187e+03 
+1.002173e+03 
+1.002221e+03 
+1.002254e+03 
+1.002258e+03 
+1.002257e+03 
+1.002307e+03 
+1.002297e+03 
+1.002242e+03 
+1.002243e+03 
+1.002247e+03 
+1.002222e+03 
+1.002279e+03 
+1.002338e+03 
+1.002391e+03 
+1.002269e+03 
+1.002350e+03 
+1.002422e+03 
+1.002420e+03 
+1.002435e+03 
+1.002446e+03 
+1.002442e+03 
+1.002452e+03 
+1.002463e+03 
+1.002483e+03 
+1.002489e+03 
+1.002468e+03 
+1.002465e+03 
+1.002457e+03 
+1.002491e+03 
+1.002483e+03 
+1.002443e+03 
+1.002462e+03 
+1.002480e+03 
+1.002453e+03 
+1.002466e+03 
+1.002513e+03 
+1.002548e+03 
+1.002583e+03 
+1.002502e+03 
+1.002540e+03 
+1.002576e+03 
+1.002605e+03 
+1.002605e+03 
+1.002618e+03 
+1.002578e+03 
+1.002607e+03 
+1.002627e+03 
+1.002553e+03 
+1.002630e+03 
+1.002635e+03 
+1.002644e+03 
+1.002653e+03 
+1.002611e+03 
+1.002618e+03 
+1.002644e+03 
+1.002654e+03 
+1.002654e+03 
+1.002635e+03 
+1.002625e+03 
+1.001852e+03 
+1.001853e+03 
+1.001830e+03 
+1.001834e+03 
+1.001853e+03 
+1.001850e+03 
+1.001845e+03 
+1.001846e+03 
+1.001856e+03 
+1.001855e+03 
+1.001857e+03 
+1.001842e+03 
+1.001853e+03 
+1.001849e+03 
+1.001839e+03 
+1.001831e+03 
+1.001819e+03 
+1.001825e+03 
+1.001813e+03 
+1.001810e+03 
+1.001799e+03 
+1.001790e+03 
+1.001801e+03 
+1.001793e+03 
+1.001772e+03 
+1.001777e+03 
+1.001776e+03 
+1.001762e+03 
+1.001745e+03 
+1.001751e+03 
+1.001764e+03 
+1.001754e+03 
+1.001766e+03 
+1.001742e+03 
+1.001719e+03 
+1.001697e+03 
+1.001737e+03 
+1.001689e+03 
+1.001736e+03 
+1.001720e+03 
+1.001763e+03 
+1.001728e+03 
+1.001651e+03 
+1.001724e+03 
+1.001756e+03 
+1.001703e+03 
+1.001656e+03 
+1.001721e+03 
+1.001713e+03 
+1.001662e+03 
+1.001677e+03 
+1.001639e+03 
+1.001684e+03 
+1.001685e+03 
+1.001663e+03 
+1.001643e+03 
+1.001704e+03 
+1.001613e+03 
+1.001697e+03 
+1.001634e+03 
+1.001637e+03 
+1.001604e+03 
+1.001629e+03 
+1.001635e+03 
+1.001621e+03 
+1.001643e+03 
+1.001645e+03 
+1.001672e+03 
+1.001610e+03 
+1.001688e+03 
+1.001640e+03 
+1.001688e+03 
+1.001638e+03 
+1.001644e+03 
+1.001547e+03 
+1.001697e+03 
+1.001599e+03 
+1.001610e+03 
+1.001668e+03 
+1.001693e+03 
+1.001596e+03 
+1.001597e+03 
+1.001629e+03 
+1.001709e+03 
+1.001518e+03 
+1.001669e+03 
+1.001624e+03 
+1.001644e+03 
+1.001630e+03 
+1.001593e+03 
+1.001630e+03 
+1.001602e+03 
+1.001657e+03 
+1.001604e+03 
+1.001636e+03 
+1.001623e+03 
+1.001621e+03 
+1.001624e+03 
+1.001625e+03 
+1.001581e+03 
+1.001637e+03 
+1.001652e+03 
+1.001658e+03 
+1.001615e+03 
+1.001629e+03 
+1.001621e+03 
+1.001665e+03 
+1.001667e+03 
+1.001633e+03 
+1.001612e+03 
+1.001666e+03 
+1.001664e+03 
+1.001649e+03 
+1.001536e+03 
+1.001631e+03 
+1.001644e+03 
+1.001588e+03 
+1.001638e+03 
+1.001641e+03 
+1.001703e+03 
+1.001596e+03 
+1.001492e+03 
+1.001643e+03 
+1.001722e+03 
+1.001550e+03 
+1.001528e+03 
+1.001635e+03 
+1.001555e+03 
+1.001651e+03 
+1.001484e+03 
+1.001576e+03 
+1.001525e+03 
+1.001621e+03 
+1.001512e+03 
+1.001551e+03 
+1.001561e+03 
+1.001579e+03 
+1.001571e+03 
+1.001554e+03 
+1.001560e+03 
+1.001462e+03 
+1.001548e+03 
+1.001425e+03 
+1.001571e+03 
+1.001460e+03 
+1.001530e+03 
+1.001512e+03 
+1.001474e+03 
+1.001507e+03 
+1.001518e+03 
+1.001496e+03 
+1.001533e+03 
+1.001446e+03 
+1.001484e+03 
+1.001466e+03 
+1.001458e+03 
+1.001481e+03 
+1.001472e+03 
+1.001471e+03 
+1.001559e+03 
+1.001445e+03 
+1.001441e+03 
+1.001429e+03 
+1.001429e+03 
+1.001501e+03 
+1.001455e+03 
+1.001477e+03 
+1.001588e+03 
+1.001453e+03 
+1.001490e+03 
+1.001418e+03 
+1.001536e+03 
+1.001335e+03 
+1.001482e+03 
+1.001482e+03 
+1.001405e+03 
+1.001511e+03 
+1.001427e+03 
+1.001464e+03 
+1.001443e+03 
+1.001419e+03 
+1.001543e+03 
+1.001484e+03 
+1.001502e+03 
+1.001389e+03 
+1.001668e+03 
+1.001451e+03 
+1.001312e+03 
+1.001291e+03 
+1.001517e+03 
+1.001375e+03 
+1.001492e+03 
+1.001280e+03 
+1.001544e+03 
+1.001564e+03 
+1.001441e+03 
+1.001507e+03 
+1.001484e+03 
+1.001229e+03 
+1.001430e+03 
+1.001360e+03 
+1.001301e+03 
+1.001308e+03 
+1.001347e+03 
+1.001421e+03 
+1.001338e+03 
+1.001415e+03 
+1.001279e+03 
+1.001295e+03 
+1.001341e+03 
+1.001325e+03 
+1.001367e+03 
+1.001227e+03 
+1.001347e+03 
+1.001340e+03 
+1.001297e+03 
+1.001330e+03 
+1.001343e+03 
+1.001305e+03 
+1.001302e+03 
+1.001156e+03 
+1.001211e+03 
+1.001310e+03 
+1.001354e+03 
+1.001357e+03 
+1.001227e+03 
+1.001247e+03 
+1.001137e+03 
+1.001378e+03 
+1.001156e+03 
+1.001138e+03 
+1.001103e+03 
+1.001107e+03 
+1.001332e+03 
+1.001126e+03 
+1.001226e+03 
+1.001117e+03 
+1.001342e+03 
+1.001158e+03 
+1.001255e+03 
+1.001230e+03 
+1.001318e+03 
+1.001236e+03 
+1.001245e+03 
+1.001220e+03 
+1.001249e+03 
+1.001260e+03 
+1.001271e+03 
+1.001249e+03 
+1.001280e+03 
+1.001175e+03 
+1.001306e+03 
+1.001304e+03 
+1.001334e+03 
+1.001331e+03 
+1.001370e+03 
+1.001234e+03 
+1.001233e+03 
+1.001405e+03 
+1.001256e+03 
+1.001223e+03 
+1.001386e+03 
+1.001276e+03 
+1.001269e+03 
+1.001234e+03 
+1.001261e+03 
+1.001478e+03 
+1.001236e+03 
+1.001176e+03 
+1.001163e+03 
+1.001204e+03 
+1.001364e+03 
+1.001296e+03 
+1.001302e+03 
+1.001341e+03 
+1.001190e+03 
+1.001072e+03 
+1.001484e+03 
+1.001398e+03 
+1.000949e+03 
+1.001572e+03 
+1.001173e+03 
+1.001148e+03 
+1.001239e+03 
+1.001588e+03 
+1.000996e+03 
+1.001321e+03 
+1.001408e+03 
+1.001402e+03 
+1.001585e+03 
+1.001091e+03 
+1.001092e+03 
+1.001350e+03 
+1.001405e+03 
+1.001055e+03 
+1.001352e+03 
+1.001144e+03 
+1.001376e+03 
+1.001113e+03 
+1.001531e+03 
+1.001009e+03 
+1.001461e+03 
+1.001137e+03 
+1.001308e+03 
+1.001400e+03 
+1.001075e+03 
+1.001172e+03 
+1.001155e+03 
+1.001289e+03 
+1.001206e+03 
+1.001353e+03 
+1.001080e+03 
+1.001213e+03 
+1.001164e+03 
+1.001235e+03 
+1.001185e+03 
+1.001367e+03 
+1.000979e+03 
+1.001452e+03 
+1.001209e+03 
+1.001327e+03 
+1.001079e+03 
+1.001046e+03 
+1.001218e+03 
+1.001060e+03 
+1.001463e+03 
+1.000855e+03 
+1.001130e+03 
+1.001409e+03 
+1.000948e+03 
+1.000931e+03 
+1.000861e+03 
+1.001162e+03 
+1.001089e+03 
+1.001103e+03 
+1.001037e+03 
+1.000909e+03 
+1.000985e+03 
+1.000990e+03 
+1.000942e+03 
+1.001205e+03 
+1.001264e+03 
+1.000675e+03 
+1.001137e+03 
+1.001087e+03 
+1.001095e+03 
+1.001037e+03 
+1.001493e+03 
+1.001106e+03 
+1.001662e+03 
+1.001256e+03 
+1.001086e+03 
+1.000971e+03 
+1.000682e+03 
+1.001734e+03 
+1.000862e+03 
+1.001453e+03 
+1.000586e+03 
+1.001426e+03 
+1.001203e+03 
+1.001060e+03 
+1.001328e+03 
+1.000889e+03 
+1.001209e+03 
+1.000520e+03 
+1.001052e+03 
+1.000834e+03 
+1.001171e+03 
+1.001039e+03 
+1.000822e+03 
+1.000895e+03 
+1.000254e+03 
+1.001089e+03 
+1.000579e+03 
+1.000922e+03 
+1.000611e+03 
+1.001361e+03 
+1.000612e+03 
+1.000592e+03 
+1.000858e+03 
+1.000974e+03 
+1.000486e+03 
+1.000791e+03 
+1.000651e+03 
+1.000571e+03 
+1.000629e+03 
+1.001093e+03 
+1.001010e+03 
+1.000909e+03 
+1.000888e+03 
+1.000824e+03 
+1.000929e+03 
+1.000757e+03 
+1.001156e+03 
+1.000547e+03 
+1.000796e+03 
+1.001223e+03 
+1.001408e+03 
+1.000906e+03 
+1.001303e+03 
+1.001276e+03 
+1.001215e+03 
+1.001027e+03 
+1.001662e+03 
+1.001224e+03 
+1.001046e+03 
+1.001514e+03 
+1.001712e+03 
+1.001378e+03 
+1.001831e+03 
+1.001226e+03 
+1.000656e+03 
+1.002051e+03 
+1.000921e+03 
+1.002034e+03 
+1.001437e+03 
+1.002105e+03 
+1.001305e+03 
+1.001643e+03 
+1.001571e+03 
+1.002209e+03 
+1.001415e+03 
+1.001767e+03 
+1.001335e+03 
+1.001722e+03 
+1.001957e+03 
+1.001849e+03 
+1.001583e+03 
+1.001574e+03 
+1.001344e+03 
+1.001618e+03 
+1.001538e+03 
+1.001843e+03 
+1.001520e+03 
+1.001661e+03 
+1.002237e+03 
+1.001713e+03 
+1.002240e+03 
+1.002010e+03 
+1.001329e+03 
+1.001751e+03 
+1.001354e+03 
+1.001747e+03 
+1.001939e+03 
+1.002133e+03 
+1.001710e+03 
+1.001979e+03 
+1.002128e+03 
+1.002154e+03 
+1.002415e+03 
+1.001888e+03 
+1.002296e+03 
+1.002253e+03 
+1.001994e+03 
+1.002016e+03 
+1.001925e+03 
+1.002464e+03 
+1.002368e+03 
+1.002444e+03 
+1.002162e+03 
+1.002349e+03 
+1.002552e+03 
+1.002216e+03 
+1.002114e+03 
+1.002589e+03 
+1.002559e+03 
+1.002220e+03 
+1.002410e+03 
+1.002548e+03 
+1.002639e+03 
+1.002509e+03 
+1.002410e+03 
+1.002427e+03 
+1.002581e+03 
+1.002474e+03 
+1.002313e+03 
+1.002368e+03 
+1.002243e+03 
+1.002544e+03 
+1.002520e+03 
+1.002425e+03 
+1.002396e+03 
+1.002453e+03 
+1.002466e+03 
+1.002393e+03 
+1.002452e+03 
+1.002362e+03 
+1.002560e+03 
+1.002506e+03 
+1.002508e+03 
+1.002496e+03 
+1.002510e+03 
+1.002258e+03 
+1.002715e+03 
+1.002556e+03 
+1.002578e+03 
+1.002482e+03 
+1.002388e+03 
+1.002832e+03 
+1.002674e+03 
+1.002412e+03 
+1.002615e+03 
+1.002670e+03 
+1.002601e+03 
+1.002334e+03 
+1.002570e+03 
+1.002585e+03 
+1.002558e+03 
+1.002463e+03 
+1.002431e+03 
+1.001795e+03 
+1.001798e+03 
+1.001747e+03 
+1.001747e+03 
+1.001807e+03 
+1.001804e+03 
+1.001749e+03 
+1.001748e+03 
+1.001775e+03 
+1.001819e+03 
+1.001753e+03 
+1.001802e+03 
+1.001792e+03 
+1.001744e+03 
+1.001728e+03 
+1.001781e+03 
+1.001712e+03 
+1.001767e+03 
+1.001755e+03 
+1.001700e+03 
+1.001688e+03 
+1.001729e+03 
+1.001743e+03 
+1.001677e+03 
+1.001656e+03 
+1.001604e+03 
+1.001622e+03 
+1.001718e+03 
+1.001660e+03 
+1.001714e+03 
+1.001689e+03 
+1.001591e+03 
+1.001624e+03 
+1.001701e+03 
+1.001656e+03 
+1.001644e+03 
+1.001602e+03 
+1.001557e+03 
+1.001536e+03 
+1.001676e+03 
+1.001578e+03 
+1.001672e+03 
+1.001611e+03 
+1.001564e+03 
+1.001494e+03 
+1.001672e+03 
+1.001567e+03 
+1.001586e+03 
+1.001677e+03 
+1.001644e+03 
+1.001541e+03 
+1.001572e+03 
+1.001616e+03 
+1.001605e+03 
+1.001632e+03 
+1.001512e+03 
+1.001524e+03 
+1.001565e+03 
+1.001615e+03 
+1.001509e+03 
+1.001594e+03 
+1.001508e+03 
+1.001599e+03 
+1.001534e+03 
+1.001586e+03 
+1.001634e+03 
+1.001484e+03 
+1.001567e+03 
+1.001638e+03 
+1.001500e+03 
+1.001598e+03 
+1.001608e+03 
+1.001513e+03 
+1.001540e+03 
+1.001591e+03 
+1.001472e+03 
+1.001544e+03 
+1.001601e+03 
+1.001482e+03 
+1.001513e+03 
+1.001584e+03 
+1.001495e+03 
+1.001573e+03 
+1.001530e+03 
+1.001590e+03 
+1.001561e+03 
+1.001446e+03 
+1.001459e+03 
+1.001546e+03 
+1.001619e+03 
+1.001458e+03 
+1.001550e+03 
+1.001520e+03 
+1.001604e+03 
+1.001474e+03 
+1.001508e+03 
+1.001620e+03 
+1.001439e+03 
+1.001523e+03 
+1.001581e+03 
+1.001476e+03 
+1.001554e+03 
+1.001462e+03 
+1.001569e+03 
+1.001434e+03 
+1.001575e+03 
+1.001561e+03 
+1.001462e+03 
+1.001548e+03 
+1.001490e+03 
+1.001623e+03 
+1.001576e+03 
+1.001440e+03 
+1.001514e+03 
+1.001595e+03 
+1.001498e+03 
+1.001552e+03 
+1.001577e+03 
+1.001447e+03 
+1.001540e+03 
+1.001599e+03 
+1.001470e+03 
+1.001550e+03 
+1.001583e+03 
+1.001493e+03 
+1.001490e+03 
+1.001552e+03 
+1.001449e+03 
+1.001556e+03 
+1.001602e+03 
+1.001453e+03 
+1.001510e+03 
+1.001591e+03 
+1.001468e+03 
+1.001629e+03 
+1.001544e+03 
+1.001485e+03 
+1.001538e+03 
+1.001440e+03 
+1.001562e+03 
+1.001604e+03 
+1.001423e+03 
+1.001490e+03 
+1.001465e+03 
+1.001527e+03 
+1.001574e+03 
+1.001531e+03 
+1.001407e+03 
+1.001547e+03 
+1.001505e+03 
+1.001578e+03 
+1.001537e+03 
+1.001423e+03 
+1.001559e+03 
+1.001537e+03 
+1.001479e+03 
+1.001409e+03 
+1.001566e+03 
+1.001499e+03 
+1.001489e+03 
+1.001452e+03 
+1.001508e+03 
+1.001427e+03 
+1.001472e+03 
+1.001567e+03 
+1.001510e+03 
+1.001408e+03 
+1.001551e+03 
+1.001418e+03 
+1.001459e+03 
+1.001498e+03 
+1.001434e+03 
+1.001443e+03 
+1.001475e+03 
+1.001421e+03 
+1.001475e+03 
+1.001505e+03 
+1.001403e+03 
+1.001464e+03 
+1.001509e+03 
+1.001445e+03 
+1.001349e+03 
+1.001448e+03 
+1.001309e+03 
+1.001395e+03 
+1.001409e+03 
+1.001282e+03 
+1.001361e+03 
+1.001453e+03 
+1.001339e+03 
+1.001390e+03 
+1.001452e+03 
+1.001323e+03 
+1.001378e+03 
+1.001473e+03 
+1.001327e+03 
+1.001414e+03 
+1.001459e+03 
+1.001304e+03 
+1.001407e+03 
+1.001427e+03 
+1.001310e+03 
+1.001396e+03 
+1.001418e+03 
+1.001369e+03 
+1.001340e+03 
+1.001413e+03 
+1.001414e+03 
+1.001298e+03 
+1.001445e+03 
+1.001357e+03 
+1.001397e+03 
+1.001431e+03 
+1.001331e+03 
+1.001313e+03 
+1.001372e+03 
+1.001429e+03 
+1.001478e+03 
+1.001487e+03 
+1.001263e+03 
+1.001318e+03 
+1.001354e+03 
+1.001427e+03 
+1.001342e+03 
+1.001325e+03 
+1.001380e+03 
+1.001429e+03 
+1.001291e+03 
+1.001405e+03 
+1.001351e+03 
+1.001302e+03 
+1.001368e+03 
+1.001446e+03 
+1.001308e+03 
+1.001408e+03 
+1.001435e+03 
+1.001348e+03 
+1.001331e+03 
+1.001347e+03 
+1.001349e+03 
+1.001451e+03 
+1.001379e+03 
+1.001294e+03 
+1.001474e+03 
+1.001305e+03 
+1.001425e+03 
+1.001305e+03 
+1.001441e+03 
+1.001228e+03 
+1.001325e+03 
+1.001424e+03 
+1.001262e+03 
+1.001306e+03 
+1.001415e+03 
+1.001427e+03 
+1.001271e+03 
+1.001467e+03 
+1.001296e+03 
+1.001368e+03 
+1.001484e+03 
+1.001276e+03 
+1.001253e+03 
+1.001231e+03 
+1.001315e+03 
+1.001218e+03 
+1.001213e+03 
+1.001348e+03 
+1.001209e+03 
+1.001235e+03 