# vtk DataFile Version 2.0
Unstructured Grid Example
ASCII
DATASET UNSTRUCTURED_GRID
POINTS 6462 float
-6.000000e-02 -6.000000e-02 +0.000000e+00 
-4.000000e-02 -6.000000e-02 +0.000000e+00 
-6.000000e-02 -4.000000e-02 +0.000000e+00 
-4.000000e-02 -4.000000e-02 +0.000000e+00 
-2.000000e-02 -6.000000e-02 +0.000000e+00 
+0.000000e+00 -6.000000e-02 +0.000000e+00 
-2.000000e-02 -4.000000e-02 +0.000000e+00 
+0.000000e+00 -4.000000e-02 +0.000000e+00 
+2.000000e-02 -6.000000e-02 +0.000000e+00 
+4.000000e-02 -6.000000e-02 +0.000000e+00 
+2.000000e-02 -4.000000e-02 +0.000000e+00 
+4.000000e-02 -4.000000e-02 +0.000000e+00 
+6.000000e-02 -6.000000e-02 +0.000000e+00 
+8.000000e-02 -6.000000e-02 +0.000000e+00 
+1.000000e-01 -6.000000e-02 +0.000000e+00 
+6.000000e-02 -4.000000e-02 +0.000000e+00 
+8.000000e-02 -4.000000e-02 +0.000000e+00 
+1.000000e-01 -4.000000e-02 +0.000000e+00 
+1.200000e-01 -6.000000e-02 +0.000000e+00 
+1.400000e-01 -6.000000e-02 +0.000000e+00 
+1.200000e-01 -4.000000e-02 +0.000000e+00 
+1.400000e-01 -4.000000e-02 +0.000000e+00 
+1.600000e-01 -6.000000e-02 +0.000000e+00 
+1.800000e-01 -6.000000e-02 +0.000000e+00 
+2.000000e-01 -6.000000e-02 +0.000000e+00 
+1.600000e-01 -4.000000e-02 +0.000000e+00 
+1.800000e-01 -4.000000e-02 +0.000000e+00 
+2.000000e-01 -4.000000e-02 +0.000000e+00 
+2.200000e-01 -6.000000e-02 +0.000000e+00 
+2.400000e-01 -6.000000e-02 +0.000000e+00 
+2.200000e-01 -4.000000e-02 +0.000000e+00 
+2.400000e-01 -4.000000e-02 +0.000000e+00 
+2.600000e-01 -6.000000e-02 +0.000000e+00 
+2.800000e-01 -6.000000e-02 +0.000000e+00 
+2.600000e-01 -4.000000e-02 +0.000000e+00 
+2.800000e-01 -4.000000e-02 +0.000000e+00 
+3.000000e-01 -6.000000e-02 +0.000000e+00 
+3.200000e-01 -6.000000e-02 +0.000000e+00 
+3.400000e-01 -6.000000e-02 +0.000000e+00 
+3.000000e-01 -4.000000e-02 +0.000000e+00 
+3.200000e-01 -4.000000e-02 +0.000000e+00 
+3.400000e-01 -4.000000e-02 +0.000000e+00 
+3.600000e-01 -6.000000e-02 +0.000000e+00 
+3.800000e-01 -6.000000e-02 +0.000000e+00 
+3.600000e-01 -4.000000e-02 +0.000000e+00 
+3.800000e-01 -4.000000e-02 +0.000000e+00 
+4.000000e-01 -6.000000e-02 +0.000000e+00 
+4.200000e-01 -6.000000e-02 +0.000000e+00 
+4.400000e-01 -6.000000e-02 +0.000000e+00 
+4.000000e-01 -4.000000e-02 +0.000000e+00 
+4.200000e-01 -4.000000e-02 +0.000000e+00 
+4.400000e-01 -4.000000e-02 +0.000000e+00 
+4.600000e-01 -6.000000e-02 +0.000000e+00 
+4.800000e-01 -6.000000e-02 +0.000000e+00 
+4.600000e-01 -4.000000e-02 +0.000000e+00 
+4.800000e-01 -4.000000e-02 +0.000000e+00 
+5.000000e-01 -6.000000e-02 +0.000000e+00 
+5.200000e-01 -6.000000e-02 +0.000000e+00 
+5.000000e-01 -4.000000e-02 +0.000000e+00 
+5.200000e-01 -4.000000e-02 +0.000000e+00 
+5.400000e-01 -6.000000e-02 +0.000000e+00 
+5.600000e-01 -6.000000e-02 +0.000000e+00 
+5.800000e-01 -6.000000e-02 +0.000000e+00 
+5.400000e-01 -4.000000e-02 +0.000000e+00 
+5.600000e-01 -4.000000e-02 +0.000000e+00 
+5.800000e-01 -4.000000e-02 +0.000000e+00 
+6.000000e-01 -6.000000e-02 +0.000000e+00 
+6.200000e-01 -6.000000e-02 +0.000000e+00 
+6.000000e-01 -4.000000e-02 +0.000000e+00 
+6.200000e-01 -4.000000e-02 +0.000000e+00 
+6.400000e-01 -6.000000e-02 +0.000000e+00 
+6.600000e-01 -6.000000e-02 +0.000000e+00 
+6.800000e-01 -6.000000e-02 +0.000000e+00 
+6.400000e-01 -4.000000e-02 +0.000000e+00 
+6.600000e-01 -4.000000e-02 +0.000000e+00 
+6.800000e-01 -4.000000e-02 +0.000000e+00 
+7.000000e-01 -6.000000e-02 +0.000000e+00 
+7.200000e-01 -6.000000e-02 +0.000000e+00 
+7.000000e-01 -4.000000e-02 +0.000000e+00 
+7.200000e-01 -4.000000e-02 +0.000000e+00 
+7.400000e-01 -6.000000e-02 +0.000000e+00 
+7.600000e-01 -6.000000e-02 +0.000000e+00 
+7.400000e-01 -4.000000e-02 +0.000000e+00 
+7.600000e-01 -4.000000e-02 +0.000000e+00 
+7.800000e-01 -6.000000e-02 +0.000000e+00 
+8.000000e-01 -6.000000e-02 +0.000000e+00 
+8.200000e-01 -6.000000e-02 +0.000000e+00 
+7.800000e-01 -4.000000e-02 +0.000000e+00 
+8.000000e-01 -4.000000e-02 +0.000000e+00 
+8.200000e-01 -4.000000e-02 +0.000000e+00 
+8.400000e-01 -6.000000e-02 +0.000000e+00 
+8.600000e-01 -6.000000e-02 +0.000000e+00 
+8.400000e-01 -4.000000e-02 +0.000000e+00 
+8.600000e-01 -4.000000e-02 +0.000000e+00 
+8.800000e-01 -6.000000e-02 +0.000000e+00 
+9.000000e-01 -6.000000e-02 +0.000000e+00 
+8.800000e-01 -4.000000e-02 +0.000000e+00 
+9.000000e-01 -4.000000e-02 +0.000000e+00 
+9.200000e-01 -6.000000e-02 +0.000000e+00 
+9.400000e-01 -6.000000e-02 +0.000000e+00 
+9.600000e-01 -6.000000e-02 +0.000000e+00 
+9.200000e-01 -4.000000e-02 +0.000000e+00 
+9.400000e-01 -4.000000e-02 +0.000000e+00 
+9.600000e-01 -4.000000e-02 +0.000000e+00 
+9.800000e-01 -6.000000e-02 +0.000000e+00 
+1.000000e+00 -6.000000e-02 +0.000000e+00 
+9.800000e-01 -4.000000e-02 +0.000000e+00 
+1.000000e+00 -4.000000e-02 +0.000000e+00 
+1.020000e+00 -6.000000e-02 +0.000000e+00 
+1.040000e+00 -6.000000e-02 +0.000000e+00 
+1.060000e+00 -6.000000e-02 +0.000000e+00 
+1.020000e+00 -4.000000e-02 +0.000000e+00 
+1.040000e+00 -4.000000e-02 +0.000000e+00 
+1.060000e+00 -4.000000e-02 +0.000000e+00 
+1.080000e+00 -6.000000e-02 +0.000000e+00 
+1.100000e+00 -6.000000e-02 +0.000000e+00 
+1.080000e+00 -4.000000e-02 +0.000000e+00 
+1.100000e+00 -4.000000e-02 +0.000000e+00 
+1.120000e+00 -6.000000e-02 +0.000000e+00 
+1.140000e+00 -6.000000e-02 +0.000000e+00 
+1.160000e+00 -6.000000e-02 +0.000000e+00 
+1.120000e+00 -4.000000e-02 +0.000000e+00 
+1.140000e+00 -4.000000e-02 +0.000000e+00 
+1.160000e+00 -4.000000e-02 +0.000000e+00 
+1.180000e+00 -6.000000e-02 +0.000000e+00 
+1.200000e+00 -6.000000e-02 +0.000000e+00 
+1.180000e+00 -4.000000e-02 +0.000000e+00 
+1.200000e+00 -4.000000e-02 +0.000000e+00 
+1.220000e+00 -6.000000e-02 +0.000000e+00 
+1.240000e+00 -6.000000e-02 +0.000000e+00 
+1.220000e+00 -4.000000e-02 +0.000000e+00 
+1.240000e+00 -4.000000e-02 +0.000000e+00 
+1.260000e+00 -6.000000e-02 +0.000000e+00 
+1.280000e+00 -6.000000e-02 +0.000000e+00 
+1.300000e+00 -6.000000e-02 +0.000000e+00 
+1.260000e+00 -4.000000e-02 +0.000000e+00 
+1.280000e+00 -4.000000e-02 +0.000000e+00 
+1.300000e+00 -4.000000e-02 +0.000000e+00 
+1.320000e+00 -6.000000e-02 +0.000000e+00 
+1.340000e+00 -6.000000e-02 +0.000000e+00 
+1.320000e+00 -4.000000e-02 +0.000000e+00 
+1.340000e+00 -4.000000e-02 +0.000000e+00 
+1.360000e+00 -6.000000e-02 +0.000000e+00 
+1.380000e+00 -6.000000e-02 +0.000000e+00 
+1.400000e+00 -6.000000e-02 +0.000000e+00 
+1.360000e+00 -4.000000e-02 +0.000000e+00 
+1.380000e+00 -4.000000e-02 +0.000000e+00 
+1.400000e+00 -4.000000e-02 +0.000000e+00 
+1.420000e+00 -6.000000e-02 +0.000000e+00 
+1.440000e+00 -6.000000e-02 +0.000000e+00 
+1.420000e+00 -4.000000e-02 +0.000000e+00 
+1.440000e+00 -4.000000e-02 +0.000000e+00 
+1.460000e+00 -6.000000e-02 +0.000000e+00 
+1.480000e+00 -6.000000e-02 +0.000000e+00 
+1.460000e+00 -4.000000e-02 +0.000000e+00 
+1.480000e+00 -4.000000e-02 +0.000000e+00 
+1.500000e+00 -6.000000e-02 +0.000000e+00 
+1.520000e+00 -6.000000e-02 +0.000000e+00 
+1.540000e+00 -6.000000e-02 +0.000000e+00 
+1.500000e+00 -4.000000e-02 +0.000000e+00 
+1.520000e+00 -4.000000e-02 +0.000000e+00 
+1.540000e+00 -4.000000e-02 +0.000000e+00 
+1.560000e+00 -6.000000e-02 +0.000000e+00 
+1.580000e+00 -6.000000e-02 +0.000000e+00 
+1.560000e+00 -4.000000e-02 +0.000000e+00 
+1.580000e+00 -4.000000e-02 +0.000000e+00 
+1.600000e+00 -6.000000e-02 +0.000000e+00 
+1.620000e+00 -6.000000e-02 +0.000000e+00 
+1.640000e+00 -6.000000e-02 +0.000000e+00 
+1.600000e+00 -4.000000e-02 +0.000000e+00 
+1.620000e+00 -4.000000e-02 +0.000000e+00 
+1.640000e+00 -4.000000e-02 +0.000000e+00 
+1.660000e+00 -6.000000e-02 +0.000000e+00 
+1.680000e+00 -6.000000e-02 +0.000000e+00 
+1.660000e+00 -4.000000e-02 +0.000000e+00 
+1.680000e+00 -4.000000e-02 +0.000000e+00 
+1.700000e+00 -6.000000e-02 +0.000000e+00 
+1.720000e+00 -6.000000e-02 +0.000000e+00 
+1.700000e+00 -4.000000e-02 +0.000000e+00 
+1.720000e+00 -4.000000e-02 +0.000000e+00 
+1.740000e+00 -6.000000e-02 +0.000000e+00 
+1.760000e+00 -6.000000e-02 +0.000000e+00 
+1.780000e+00 -6.000000e-02 +0.000000e+00 
+1.740000e+00 -4.000000e-02 +0.000000e+00 
+1.760000e+00 -4.000000e-02 +0.000000e+00 
+1.780000e+00 -4.000000e-02 +0.000000e+00 
+1.800000e+00 -6.000000e-02 +0.000000e+00 
+1.820000e+00 -6.000000e-02 +0.000000e+00 
+1.800000e+00 -4.000000e-02 +0.000000e+00 
+1.820000e+00 -4.000000e-02 +0.000000e+00 
+1.840000e+00 -6.000000e-02 +0.000000e+00 
+1.860000e+00 -6.000000e-02 +0.000000e+00 
+1.880000e+00 -6.000000e-02 +0.000000e+00 
+1.840000e+00 -4.000000e-02 +0.000000e+00 
+1.860000e+00 -4.000000e-02 +0.000000e+00 
+1.880000e+00 -4.000000e-02 +0.000000e+00 
+1.900000e+00 -6.000000e-02 +0.000000e+00 
+1.920000e+00 -6.000000e-02 +0.000000e+00 
+1.900000e+00 -4.000000e-02 +0.000000e+00 
+1.920000e+00 -4.000000e-02 +0.000000e+00 
+1.940000e+00 -6.000000e-02 +0.000000e+00 
+1.960000e+00 -6.000000e-02 +0.000000e+00 
+1.940000e+00 -4.000000e-02 +0.000000e+00 
+1.960000e+00 -4.000000e-02 +0.000000e+00 
+1.980000e+00 -6.000000e-02 +0.000000e+00 
+2.000000e+00 -6.000000e-02 +0.000000e+00 
+2.020000e+00 -6.000000e-02 +0.000000e+00 
+1.980000e+00 -4.000000e-02 +0.000000e+00 
+2.000000e+00 -4.000000e-02 +0.000000e+00 
+2.020000e+00 -4.000000e-02 +0.000000e+00 
+2.040000e+00 -6.000000e-02 +0.000000e+00 
+2.060000e+00 -6.000000e-02 +0.000000e+00 
+2.040000e+00 -4.000000e-02 +0.000000e+00 
+2.060000e+00 -4.000000e-02 +0.000000e+00 
+2.080000e+00 -6.000000e-02 +0.000000e+00 
+2.100000e+00 -6.000000e-02 +0.000000e+00 
+2.120000e+00 -6.000000e-02 +0.000000e+00 
+2.080000e+00 -4.000000e-02 +0.000000e+00 
+2.100000e+00 -4.000000e-02 +0.000000e+00 
+2.120000e+00 -4.000000e-02 +0.000000e+00 
+2.140000e+00 -6.000000e-02 +0.000000e+00 
+2.160000e+00 -6.000000e-02 +0.000000e+00 
+2.140000e+00 -4.000000e-02 +0.000000e+00 
+2.160000e+00 -4.000000e-02 +0.000000e+00 
+2.180000e+00 -6.000000e-02 +0.000000e+00 
+2.200000e+00 -6.000000e-02 +0.000000e+00 
+2.180000e+00 -4.000000e-02 +0.000000e+00 
+2.200000e+00 -4.000000e-02 +0.000000e+00 
+2.220000e+00 -6.000000e-02 +0.000000e+00 
+2.240000e+00 -6.000000e-02 +0.000000e+00 
[...]
POINT_DATA 6462 
SCALARS density float 1 
LOOKUP_TABLE default
+1.001831e+03 
+1.001834e+03 
+1.001826e+03 
+1.001830e+03 
+1.001839e+03 
+1.001847e+03 
+1.001839e+03 
+1.001850e+03 
+1.001854e+03 
+1.001860e+03 
+1.001859e+03 
+1.001864e+03 
+1.001864e+03 
+1.001867e+03 
+1.001870e+03 
+1.001868e+03 
+1.001871e+03 
+1.001874e+03 
+1.001872e+03 
+1.001874e+03 
+1.001876e+03 
+1.001877e+03 
+1.001875e+03 
+1.001875e+03 
+1.001875e+03 
+1.001877e+03 
+1.001877e+03 
+1.001878e+03 
+1.001874e+03 
+1.001871e+03 
+1.001876e+03 
+1.001871e+03 
+1.001869e+03 
+1.001870e+03 
+1.001867e+03 
+1.001866e+03 
+1.001874e+03 
+1.001879e+03 
+1.001884e+03 
+1.001871e+03 
+1.001877e+03 
+1.001883e+03 
+1.001887e+03 
+1.001890e+03 
+1.001882e+03 
+1.001886e+03 
+1.001894e+03 
+1.001900e+03 
+1.001906e+03 
+1.001888e+03 
+1.001895e+03 
+1.001906e+03 
+1.001908e+03 
+1.001909e+03 
+1.001901e+03 
+1.001903e+03 
+1.001909e+03 
+1.001907e+03 
+1.001904e+03 
+1.001904e+03 
+1.001902e+03 
+1.001896e+03 
+1.001891e+03 
+1.001896e+03 
+1.001887e+03 
+1.001881e+03 
+1.001888e+03 
+1.001887e+03 
+1.001880e+03 
+1.001875e+03 
+1.001884e+03 
+1.001874e+03 
+1.001864e+03 
+1.001885e+03 
+1.001862e+03 
+1.001856e+03 
+1.001852e+03 
+1.001840e+03 
+1.001845e+03 
+1.001818e+03 
+1.001836e+03 
+1.001836e+03 
+1.001828e+03 
+1.001821e+03 
+1.001839e+03 
+1.001842e+03 
+1.001841e+03 
+1.001828e+03 
+1.001834e+03 
+1.001840e+03 
+1.001834e+03 
+1.001826e+03 
+1.001824e+03 
+1.001819e+03 
+1.001816e+03 
+1.001807e+03 
+1.001805e+03 
+1.001795e+03 
+1.001801e+03 
+1.001800e+03 
+1.001805e+03 
+1.001789e+03 
+1.001781e+03 
+1.001798e+03 
+1.001810e+03 
+1.001814e+03 
+1.001800e+03 
+1.001805e+03 
+1.001817e+03 
+1.001821e+03 
+1.001822e+03 
+1.001806e+03 
+1.001812e+03 
+1.001823e+03 
+1.001818e+03 
+1.001811e+03 
+1.001806e+03 
+1.001803e+03 
+1.001803e+03 
+1.001792e+03 
+1.001768e+03 
+1.001794e+03 
+1.001793e+03 
+1.001770e+03 
+1.001739e+03 
+1.001724e+03 
+1.001711e+03 
+1.001702e+03 
+1.001721e+03 
+1.001723e+03 
+1.001709e+03 
+1.001710e+03 
+1.001729e+03 
+1.001743e+03 
+1.001757e+03 
+1.001708e+03 
+1.001729e+03 
+1.001754e+03 
+1.001766e+03 
+1.001766e+03 
+1.001759e+03 
+1.001755e+03 
+1.001759e+03 
+1.001742e+03 
+1.001732e+03 
+1.001763e+03 
+1.001720e+03 
+1.001712e+03 
+1.001729e+03 
+1.001728e+03 
+1.001716e+03 
+1.001721e+03 
+1.001721e+03 
+1.001715e+03 
+1.001707e+03 
+1.001692e+03 
+1.001714e+03 
+1.001717e+03 
+1.001710e+03 
+1.001693e+03 
+1.001710e+03 
+1.001699e+03 
+1.001699e+03 
+1.001695e+03 
+1.001671e+03 
+1.001680e+03 
+1.001687e+03 
+1.001663e+03 
+1.001639e+03 
+1.001685e+03 
+1.001660e+03 
+1.001583e+03 
+1.001636e+03 
+1.001630e+03 
+1.001640e+03 
+1.001611e+03 
+1.001624e+03 
+1.001623e+03 
+1.001604e+03 
+1.001612e+03 
+1.001620e+03 
+1.001603e+03 
+1.001578e+03 
+1.001620e+03 
+1.001601e+03 
+1.001554e+03 
+1.001565e+03 
+1.001568e+03 
+1.001534e+03 
+1.001558e+03 
+1.001573e+03 
+1.001570e+03 
+1.001561e+03 
+1.001568e+03 
+1.001560e+03 
+1.001553e+03 
+1.001537e+03 
+1.001502e+03 
+1.001552e+03 
+1.001467e+03 
+1.001482e+03 
+1.001480e+03 
+1.001458e+03 
+1.001446e+03 
+1.001497e+03 
+1.001515e+03 
+1.001510e+03 
+1.001471e+03 
+1.001529e+03 
+1.001502e+03 
+1.001496e+03 
+1.001492e+03 
+1.001463e+03 
+1.001462e+03 
+1.001502e+03 
+1.001508e+03 
+1.001493e+03 
+1.001476e+03 
+1.001524e+03 
+1.001467e+03 
+1.001479e+03 
+1.001475e+03 
+1.001445e+03 
+1.001456e+03 
+1.001479e+03 
+1.001487e+03 
+1.001446e+03 
+1.001484e+03 
+1.001487e+03 
+1.001475e+03 
+1.001466e+03 
+1.001485e+03 
+1.001448e+03 
+1.001466e+03 
+1.001442e+03 
+1.001418e+03 
+1.001435e+03 
+1.001383e+03 
+1.001413e+03 
+1.001418e+03 
+1.001408e+03 
+1.001394e+03 
+1.001423e+03 
+1.001410e+03 
+1.001394e+03 
+1.001386e+03 
+1.001370e+03 
+1.001384e+03 
+1.001379e+03 
+1.001376e+03 
+1.001368e+03 
+1.001363e+03 
+1.001381e+03 
+1.001381e+03 
+1.001373e+03 
+1.001385e+03 
+1.001390e+03 
+1.001383e+03 
+1.001360e+03 
+1.001353e+03 
+1.001354e+03 
+1.001363e+03 
+1.001343e+03 
+1.001335e+03 
+1.001337e+03 
+1.001358e+03 
+1.001330e+03 
+1.001348e+03 
+1.001336e+03 
+1.001329e+03 
+1.001356e+03 
+1.001341e+03 
+1.001316e+03 
+1.001299e+03 
+1.001323e+03 
+1.001304e+03 
+1.001288e+03 
+1.001270e+03 
+1.001245e+03 
+1.001301e+03 
+1.001284e+03 
+1.001235e+03 
+1.001226e+03 
+1.001227e+03 
+1.001214e+03 
+1.001212e+03 
+1.001239e+03 
+1.001252e+03 
+1.001287e+03 
+1.001243e+03 
+1.001230e+03 
+1.001262e+03 
+1.001331e+03 
+1.001350e+03 
+1.001363e+03 
+1.001370e+03 
+1.001347e+03 
+1.001333e+03 
+1.001339e+03 
+1.001369e+03 
+1.001295e+03 
+1.001276e+03 
+1.001273e+03 
+1.001255e+03 
+1.001245e+03 
+1.001287e+03 
+1.001254e+03 
+1.001230e+03 
+1.001264e+03 
+1.001211e+03 
+1.001205e+03 
+1.001177e+03 
+1.001168e+03 
+1.001247e+03 
+1.001177e+03 
+1.001138e+03 
+1.001179e+03 
+1.001163e+03 
+1.001248e+03 
+1.001205e+03 
+1.001128e+03 
+1.001124e+03 
+1.001117e+03 
+1.001119e+03 
+1.001143e+03 
+1.001152e+03 
+1.001158e+03 
+1.001195e+03 
+1.001192e+03 
+1.001173e+03 
+1.001169e+03 
+1.001160e+03 
+1.001231e+03 
+1.001215e+03 
+1.001136e+03 
+1.001130e+03 
+1.001109e+03 
+1.001133e+03 
+1.001191e+03 
+1.001143e+03 
+1.001074e+03 
+1.001040e+03 
+1.001099e+03 
+1.001049e+03 
+1.001040e+03 
+1.001045e+03 
+1.001038e+03 
+1.001100e+03 
+1.001039e+03 
+1.001033e+03 
+1.001029e+03 
+1.001052e+03 
+1.001034e+03 
+1.001037e+03 
+1.001022e+03 
+1.000997e+03 
+1.001035e+03 
+1.000946e+03 
+1.001000e+03 
+1.001004e+03 
+1.000999e+03 
+1.000997e+03 
+1.000991e+03 
+1.000994e+03 
+1.000986e+03 
+1.000974e+03 
+1.000970e+03 
+1.000938e+03 
+1.000973e+03 
+1.000943e+03 
+1.000981e+03 
+1.000935e+03 
+1.000897e+03 
+1.000864e+03 
+1.000862e+03 
+1.000848e+03 
+1.000782e+03 
+1.000825e+03 
+1.000859e+03 
+1.000830e+03 
+1.000850e+03 
+1.000798e+03 
+1.000790e+03 
+1.000765e+03 
+1.000768e+03 
+1.000750e+03 
+1.000693e+03 
+1.000765e+03 
+1.000766e+03 
+1.000771e+03 
+1.000719e+03 
+1.000747e+03 
+1.000770e+03 
+1.000747e+03 
+1.000777e+03 
+1.000763e+03 
+1.000705e+03 
+1.000672e+03 
+1.000671e+03 
+1.000686e+03 
+1.000673e+03 
+1.000651e+03 
+1.000706e+03 
+1.000717e+03 
+1.000780e+03 
+1.000779e+03 
+1.000712e+03 
+1.000723e+03 
+1.000731e+03 
+1.000745e+03 
+1.000779e+03 
+1.000793e+03 
+1.000741e+03 
+1.000792e+03 
+1.000763e+03 
+1.000799e+03 
+1.000880e+03 
+1.000971e+03 
+1.000915e+03 
+1.001073e+03 
+1.001020e+03 
+1.001061e+03 
+1.001083e+03 
+1.001043e+03 
+1.001117e+03 
+1.001133e+03 
+1.001096e+03 
+1.001131e+03 
+1.001075e+03 
+1.001128e+03 
+1.001165e+03 
+1.001170e+03 
+1.001211e+03 
+1.001138e+03 
+1.001173e+03 
+1.001159e+03 
+1.001170e+03 
+1.001191e+03 
+1.001118e+03 
+1.001146e+03 
+1.001195e+03 
+1.001218e+03 
+1.001187e+03 
+1.001211e+03 
+1.001234e+03 
+1.001224e+03 
+1.001218e+03 
+1.001281e+03 
+1.001224e+03 
+1.001204e+03 
+1.001238e+03 
+1.001291e+03 
+1.001209e+03 
+1.001347e+03 
+1.001306e+03 
+1.001285e+03 
+1.001245e+03 
+1.001357e+03 
+1.001308e+03 
+1.001277e+03 
+1.001208e+03 
+1.001179e+03 
+1.001213e+03 
+1.001241e+03 
+1.001136e+03 
+1.001127e+03 
+1.001130e+03 
+1.001137e+03 
+1.001132e+03 
+1.001115e+03 
+1.001123e+03 
+1.001208e+03 
+1.001132e+03 
+1.001100e+03 
+1.001185e+03 
+1.001259e+03 
+1.001201e+03 
+1.001319e+03 
+1.001294e+03 
+1.001303e+03 
+1.001375e+03 
+1.001289e+03 
+1.001348e+03 
+1.001436e+03 
+1.001529e+03 
+1.001352e+03 
+1.001474e+03 
+1.001634e+03 
+1.001584e+03 
+1.001617e+03 
+1.001683e+03 
+1.001656e+03 
+1.001685e+03 
+1.001790e+03 
+1.001882e+03 
+1.001723e+03 
+1.001893e+03 
+1.001994e+03 
+1.001941e+03 
+1.001977e+03 
+1.002050e+03 
+1.002038e+03 
+1.002027e+03 
+1.002101e+03 
+1.002192e+03 
+1.002075e+03 
+1.002158e+03 
+1.002252e+03 
+1.002274e+03 
+1.002301e+03 
+1.002390e+03 
+1.002392e+03 
+1.002292e+03 
+1.002297e+03 
+1.002324e+03 
+1.002331e+03 
+1.002317e+03 
+1.002334e+03 
+1.002340e+03 
+1.002364e+03 
+1.002393e+03 
+1.002359e+03 
+1.002361e+03 
+1.002413e+03 
+1.002369e+03 
+1.002440e+03 
+1.002474e+03 
+1.002518e+03 
+1.002547e+03 
+1.002525e+03 
+1.002548e+03 
+1.002565e+03 
+1.002565e+03 
+1.002573e+03 
+1.002579e+03 
+1.002574e+03 
+1.002577e+03 
+1.002595e+03 
+1.002564e+03 
+1.002567e+03 
+1.002633e+03 
+1.002685e+03 
+1.002715e+03 
+1.002611e+03 
+1.002701e+03 
+1.002741e+03 
+1.002713e+03 
+1.002704e+03 
+1.002712e+03 
+1.002682e+03 
+1.001815e+03 
+1.001823e+03 
+1.001794e+03 
+1.001807e+03 
+1.001840e+03 
+1.001858e+03 
+1.001841e+03 
+1.001863e+03 
+1.001875e+03 
+1.001877e+03 
+1.001873e+03 
+1.001871e+03 
+1.001876e+03 
+1.001878e+03 
+1.001880e+03 
+1.001862e+03 
+1.001856e+03 
+1.001884e+03 
+1.001884e+03 
+1.001854e+03 
+1.001859e+03 
+1.001864e+03 
+1.001881e+03 
+1.001881e+03 
+1.001884e+03 
+1.001863e+03 
+1.001863e+03 
+1.001885e+03 
+1.001872e+03 
+1.001867e+03 
+1.001860e+03 
+1.001856e+03 
+1.001860e+03 
+1.001856e+03 
+1.001827e+03 
+1.001884e+03 
+1.001854e+03 
+1.001864e+03 
+1.001878e+03 
+1.001891e+03 
+1.001843e+03 
+1.001877e+03 
+1.001878e+03 
+1.001887e+03 
+1.001859e+03 
+1.001896e+03 
+1.001836e+03 
+1.001872e+03 
+1.001876e+03 
+1.001919e+03 
+1.001878e+03 
+1.001858e+03 
+1.001890e+03 
+1.001867e+03 
+1.001851e+03 
+1.001858e+03 
+1.001840e+03 
+1.001883e+03 
+1.001898e+03 
+1.001854e+03 
+1.001830e+03 
+1.001881e+03 
+1.001881e+03 
+1.001845e+03 
+1.001830e+03 
+1.001869e+03 
+1.001860e+03 
+1.001864e+03 
+1.001819e+03 
+1.001808e+03 
+1.001906e+03 
+1.001791e+03 
+1.001854e+03 
+1.001841e+03 
+1.001873e+03 
+1.001789e+03 
+1.001811e+03 
+1.001813e+03 
+1.001771e+03 
+1.001787e+03 
+1.001797e+03 
+1.001794e+03 
+1.001805e+03 
+1.001823e+03 
+1.001830e+03 
+1.001823e+03 
+1.001765e+03 
+1.001763e+03 
+1.001770e+03 
+1.001809e+03 
+1.001752e+03 
+1.001802e+03 
+1.001810e+03 
+1.001776e+03 
+1.001742e+03 
+1.001742e+03 
+1.001761e+03 
+1.001742e+03 
+1.001794e+03 
+1.001750e+03 
+1.001746e+03 
+1.001765e+03 
+1.001798e+03 
+1.001747e+03 
+1.001777e+03 
+1.001769e+03 
+1.001804e+03 
+1.001818e+03 
+1.001762e+03 
+1.001770e+03 
+1.001804e+03 
+1.001782e+03 
+1.001700e+03 
+1.001649e+03 
+1.001698e+03 
+1.001830e+03 
+1.001800e+03 
+1.001665e+03 
+1.001657e+03 
+1.001676e+03 
+1.001598e+03 
+1.001686e+03 
+1.001722e+03 
+1.001700e+03 
+1.001697e+03 
+1.001692e+03 
+1.001696e+03 
+1.001756e+03 
+1.001674e+03 
+1.001738e+03 
+1.001702e+03 
+1.001712e+03 
+1.001715e+03 
+1.001762e+03 
+1.001703e+03 
+1.001633e+03 
+1.001718e+03 
+1.001819e+03 
+1.001643e+03 
+1.001690e+03 
+1.001680e+03 
+1.001674e+03 
+1.001694e+03 
+1.001701e+03 
+1.001636e+03 
+1.001608e+03 
+1.001661e+03 
+1.001685e+03 
+1.001691e+03 
+1.001628e+03 
+1.001644e+03 
+1.001727e+03 
+1.001647e+03 
+1.001608e+03 
+1.001641e+03 
+1.001589e+03 
+1.001687e+03 
+1.001546e+03 
+1.001628e+03 
+1.001722e+03 
+1.001604e+03 
+1.001392e+03 
+1.001610e+03 
+1.001495e+03 
+1.001749e+03 
+1.001500e+03 
+1.001616e+03 
+1.001561e+03 
+1.001642e+03 
+1.001549e+03 
+1.001549e+03 
+1.001626e+03 
+1.001598e+03 
+1.001502e+03 
+1.001512e+03 
+1.001532e+03 
+1.001483e+03 
+1.001546e+03 
+1.001542e+03 
+1.001463e+03 
+1.001546e+03 
+1.001520e+03 
+1.001608e+03 
+1.001488e+03 
+1.001435e+03 
+1.001546e+03 
+1.001252e+03 
+1.001421e+03 
+1.001489e+03 
+1.001477e+03 
+1.001404e+03 
+1.001396e+03 
+1.001440e+03 
+1.001446e+03 
+1.001561e+03 
+1.001409e+03 
+1.001342e+03 
+1.001375e+03 
+1.001396e+03 
+1.001459e+03 
+1.001403e+03 
+1.001399e+03 
+1.001383e+03 
+1.001624e+03 
+1.001286e+03 
+1.001325e+03 
+1.001401e+03 
+1.001430e+03 
+1.001448e+03 
+1.001440e+03 
+1.001397e+03 
+1.001404e+03 
+1.001469e+03 
+1.001249e+03 
+1.001400e+03 
+1.001515e+03 
+1.001249e+03 
+1.001622e+03 
+1.001504e+03 
+1.001198e+03 
+1.001366e+03 
+1.001338e+03 
+1.001545e+03 
+1.001331e+03 
+1.001259e+03 
+1.001543e+03 
+1.001384e+03 
+1.001258e+03 
+1.001455e+03 
+1.001323e+03 
+1.001401e+03 
+1.001277e+03 
+1.001428e+03 
+1.001364e+03 
+1.001292e+03 
+1.001199e+03 
+1.001421e+03 
+1.001500e+03 
+1.001335e+03 
+1.001372e+03 
+1.001345e+03 
+1.001257e+03 
+1.001303e+03 
+1.001489e+03 
+1.001418e+03 
+1.001326e+03 
+1.001324e+03 
+1.001291e+03 
+1.001459e+03 
+1.001337e+03 
+1.001329e+03 
+1.001316e+03 
+1.001356e+03 
+1.001246e+03 
+1.001336e+03 
+1.001458e+03 
+1.001170e+03 
+1.001253e+03 
+1.001224e+03 
+1.001336e+03 
+1.001299e+03 
+1.001317e+03 
+1.001262e+03 
+1.001366e+03 
+1.001087e+03 
+1.001152e+03 
+1.001072e+03 
+1.001446e+03 
+1.001366e+03 
+1.001073e+03 
+1.001250e+03 
+1.000997e+03 
+1.001301e+03 
+1.001161e+03 
+1.001475e+03 
+1.001400e+03 
+1.001289e+03 
+1.001202e+03 
+1.001618e+03 
+1.001271e+03 
+1.001203e+03 
+1.001343e+03 
+1.001023e+03 
+1.001256e+03 
+1.001361e+03 
+1.001017e+03 
+1.001239e+03 
+1.001216e+03 
+1.001350e+03 
+1.001455e+03 
+1.001201e+03 
+1.001047e+03 
+1.001221e+03 
+1.001233e+03 
+1.001240e+03 
+1.001411e+03 
+1.001274e+03 
+1.001098e+03 
+1.001209e+03 
+1.001007e+03 
+1.001175e+03 
+1.001311e+03 
+1.001194e+03 
+1.001375e+03 
+1.001216e+03 
+1.001129e+03 
+1.001246e+03 
+1.001056e+03 
+1.001380e+03 
+1.001477e+03 
+1.001305e+03 
+1.000938e+03 
+1.001440e+03 
+1.001134e+03 
+1.001100e+03 
+1.001133e+03 
+1.001346e+03 
+1.000663e+03 
+1.001020e+03 
+1.000983e+03 
+1.001137e+03 
+1.001246e+03 
+1.001168e+03 
+1.000838e+03 
+1.001328e+03 
+1.001051e+03 
+1.001151e+03 
+1.000835e+03 
+1.000870e+03 
+1.001042e+03 
+1.001453e+03 
+1.000566e+03 
+1.001196e+03 
+1.000934e+03 
+1.000917e+03 
+1.001094e+03 
+1.000958e+03 
+1.000980e+03 
+1.000634e+03 
+1.001028e+03 
+1.000687e+03 
+1.001157e+03 
+1.000566e+03 
+1.001284e+03 
+1.000700e+03 
+1.000795e+03 
+1.000695e+03 
+1.000877e+03 
+1.000619e+03 
+1.000728e+03 
+1.000818e+03 
+1.000390e+03 
+1.000814e+03 
+1.000772e+03 
+1.000803e+03 
+1.000732e+03 
+1.000736e+03 
+1.000456e+03 
+1.000927e+03 
+1.000822e+03 
+1.000438e+03 
+1.000898e+03 
+1.000589e+03 
+1.000646e+03 
+1.000683e+03 
+1.000801e+03 
+1.000807e+03 
+1.001077e+03 
+1.000716e+03 
+1.000788e+03 
+1.000325e+03 
+1.000493e+03 
+1.001082e+03 
+1.000745e+03 
+1.001302e+03 
+1.000916e+03 
+1.000929e+03 
+1.000921e+03 
+1.000571e+03 
+1.001038e+03 
+1.001034e+03 
+1.000884e+03 
+1.001319e+03 
+1.000812e+03 
+1.000594e+03 
+1.001068e+03 
+1.001135e+03 
+1.000877e+03 
+1.001486e+03 
+1.001277e+03 
+1.000961e+03 
+1.000803e+03 
+1.001357e+03 
+1.001164e+03 
+1.001114e+03 
+1.001056e+03 
+1.000922e+03 
+1.001136e+03 
+1.001066e+03 
+1.001039e+03 
+1.000942e+03 
+1.001423e+03 
+1.000832e+03 
+1.001166e+03 
+1.001126e+03 
+1.001633e+03 
+1.000581e+03 
+1.001113e+03 
+1.001296e+03 
+1.001093e+03 
+1.001323e+03 
+1.001146e+03 
+1.001155e+03 
+1.000883e+03 
+1.001399e+03 
+1.001035e+03 
+1.001452e+03 
+1.001406e+03 
+1.000796e+03 
+1.001710e+03 
+1.000815e+03 
+1.001183e+03 
+1.000960e+03 
+1.001270e+03 
+1.001410e+03 
+1.001358e+03 
+1.001416e+03 
+1.000981e+03 
+1.000993e+03 
+1.001816e+03 
+1.001698e+03 
+1.001391e+03 
+1.000752e+03 
+1.001214e+03 
+1.001298e+03 
+1.001020e+03 
+1.001535e+03 
+1.001623e+03 
+1.001103e+03 
+1.000896e+03 
+1.001545e+03 
+1.001248e+03 
+1.001321e+03 
+1.001528e+03 
+1.001439e+03 
+1.001948e+03 
+1.001488e+03 
+1.001073e+03 
+1.001622e+03 
+1.001619e+03 
+1.001668e+03 
+1.001410e+03 
+1.001506e+03 
+1.001961e+03 
+1.001786e+03 
+1.001864e+03 
+1.002029e+03 
+1.001613e+03 
+1.002215e+03 
+1.002606e+03 
+1.001688e+03 
+1.002205e+03 
+1.002243e+03 
+1.002352e+03 
+1.002445e+03 
+1.002368e+03 
+1.002328e+03 
+1.002084e+03 
+1.002473e+03 
+1.002362e+03 
+1.002188e+03 
+1.002306e+03 
+1.002257e+03 
+1.002349e+03 
+1.002832e+03 
+1.002631e+03 
+1.002322e+03 
+1.002479e+03 
+1.002450e+03 
+1.002241e+03 
+1.002440e+03 
+1.002437e+03 
+1.002421e+03 
+1.002596e+03 
+1.002375e+03 
+1.002397e+03 
+1.002461e+03 
+1.002339e+03 
+1.002485e+03 
+1.002366e+03 
+1.002381e+03 
+1.002481e+03 
+1.002718e+03 
+1.002568e+03 
+1.002620e+03 
+1.002390e+03 
+1.002421e+03 
+1.002425e+03 
+1.002602e+03 
+1.002620e+03 
+1.002433e+03 
+1.002542e+03 
+1.002467e+03 
+1.002551e+03 
+1.002405e+03 
+1.002450e+03 
+1.002528e+03 
+1.002773e+03 
+1.002899e+03 
+1.002680e+03 
+1.002439e+03 
+1.002530e+03 
+1.002667e+03 
+1.002609e+03 
+1.002488e+03 
+1.002463e+03 
+1.001762e+03 
+1.001775e+03 
+1.001717e+03 
+1.001730e+03 
+1.001824e+03 
+1.001808e+03 
+1.001761e+03 
+1.001778e+03 
+1.001799e+03 
+1.001837e+03 
+1.001724e+03 
+1.001784e+03 
+1.001830e+03 
+1.001820e+03 
+1.001772e+03 
+1.001763e+03 
+1.001814e+03 
+1.001757e+03 
+1.001811e+03 
+1.001816e+03 
+1.001754e+03 
+1.001759e+03 
+1.001813e+03 
+1.001817e+03 
+1.001765e+03 
+1.001754e+03 
+1.001700e+03 
+1.001694e+03 
+1.001824e+03 
+1.001772e+03 
+1.001832e+03 
+1.001803e+03 
+1.001692e+03 
+1.001725e+03 
+1.001824e+03 
+1.001788e+03 
+1.001749e+03 
+1.001740e+03 
+1.001668e+03 
+1.001768e+03 
+1.001673e+03 
+1.001812e+03 
+1.001736e+03 
+1.001789e+03 
+1.001717e+03 
+1.001735e+03 
+1.001817e+03 
+1.001771e+03 
+1.001670e+03 
+1.001789e+03 
+1.001750e+03 
+1.001756e+03 
+1.001805e+03 
+1.001832e+03 
+1.001665e+03 
+1.001656e+03 
+1.001712e+03 
+1.001787e+03 
+1.001711e+03 
+1.001799e+03 
+1.001647e+03 
+1.001821e+03 
+1.001687e+03 
+1.001774e+03 
+1.001806e+03 
+1.001759e+03 
+1.001696e+03 
+1.001786e+03 
+1.001702e+03 
+1.001748e+03 
+1.001807e+03 
+1.001708e+03 
+1.001755e+03 
+1.001808e+03 
+1.001688e+03 
+1.001762e+03 
+1.001822e+03 
+1.001686e+03 
+1.001756e+03 
+1.001664e+03 
+1.001824e+03 
+1.001786e+03 
+1.001695e+03 
+1.001805e+03 
+1.001665e+03 
+1.001725e+03 
+1.001793e+03 
+1.001649e+03 
+1.001720e+03 
+1.001701e+03 
+1.001779e+03 
+1.001756e+03 
+1.001679e+03 
+1.001736e+03 
+1.001612e+03 
+1.001762e+03 
+1.001664e+03 
+1.001713e+03 
+1.001777e+03 
+1.001659e+03 
+1.001617e+03 
+1.001696e+03 
+1.001744e+03 
+1.001656e+03 
+1.001698e+03 
+1.001740e+03 
+1.001642e+03 
+1.001675e+03 
+1.001730e+03 
+1.001617e+03 
+1.001682e+03 
+1.001755e+03 
+1.001669e+03 
+1.001620e+03 
+1.001625e+03 
+1.001689e+03 
+1.001697e+03 
+1.001719e+03 
+1.001651e+03 
+1.001624e+03 
+1.001701e+03 
+1.001584e+03 
+1.001666e+03 
+1.001639e+03 
+1.001688e+03 
+1.001667e+03 
+1.001676e+03 
+1.001614e+03 
+1.001635e+03 
+1.001700e+03 
+1.001561e+03 
+1.001627e+03 
+1.001696e+03 
+1.001662e+03 
+1.001710e+03 
+1.001578e+03 
+1.001527e+03 
+1.001659e+03 
+1.001589e+03 
+1.001721e+03 
+1.001588e+03 
+1.001655e+03 
+1.001655e+03 
+1.001562e+03 
+1.001596e+03 
+1.001653e+03 
+1.001592e+03 
+1.001613e+03 
+1.001544e+03 
+1.001544e+03 
+1.001603e+03 
+1.001645e+03 
+1.001554e+03 
+1.001591e+03 
+1.001674e+03 
+1.001546e+03 
+1.001587e+03 
+1.001671e+03 
+1.001560e+03 
+1.001600e+03 
+1.001667e+03 
+1.001544e+03 
+1.001594e+03 
+1.001659e+03 
+1.001539e+03 
+1.001592e+03 
+1.001664e+03 
+1.001618e+03 
+1.001516e+03 
+1.001692e+03 
+1.001522e+03 
+1.001496e+03 
+1.001661e+03 
+1.001567e+03 
+1.001493e+03 
+1.001621e+03 
+1.001533e+03 
+1.001515e+03 
+1.001592e+03 
+1.001649e+03 
+1.001495e+03 
+1.001612e+03 
+1.001549e+03 
+1.001594e+03 
+1.001633e+03 
+1.001500e+03 
+1.001483e+03 
+1.001542e+03 
+1.001628e+03 
+1.001474e+03 
+1.001522e+03 
+1.001597e+03 
+1.001561e+03 
+1.001481e+03 
+1.001587e+03 
+1.001492e+03 
+1.001510e+03 
+1.001523e+03 
+1.001450e+03 
+1.001589e+03 
+1.001554e+03 
+1.001432e+03 
+1.001586e+03 
+1.001490e+03 
+1.001484e+03 
+1.001592e+03 
+1.001564e+03 
+1.001365e+03 
+1.001479e+03 
+1.001601e+03 
+1.001416e+03 
+1.001550e+03 
+1.001442e+03 
+1.001525e+03 
+1.001439e+03 
+1.001550e+03 
+1.001473e+03 
+1.001419e+03 
+1.001489e+03 
+1.001454e+03 
+1.001413e+03 
+1.001551e+03 
+1.001454e+03 
+1.001354e+03 
+1.001562e+03 
+1.001381e+03 
+1.001406e+03 
+1.001440e+03 
+1.001456e+03 
+1.001345e+03 
+1.001456e+03 
+1.001342e+03 
+1.001413e+03 
+1.001431e+03 
+1.001353e+03 
+1.001413e+03 
+1.001557e+03 
+1.001308e+03 
+1.001374e+03 
+1.001335e+03 
+1.001279e+03 
+1.001426e+03 
+1.001385e+03 
+1.001470e+03 
+1.001335e+03 
+1.001396e+03 
+1.001222e+03 
+1.001328e+03 
+1.001351e+03 
+1.001286e+03 
+1.001372e+03 
+1.001336e+03 
+1.001403e+03 
+1.001459e+03 
+1.001242e+03 
+1.001304e+03 
+1.001238e+03 
+1.001266e+03 
+1.001300e+03 
+1.001235e+03 
+1.001379e+03 
+1.001278e+03 
+1.001334e+03 