# vtk DataFile Version 2.0
Unstructured Grid Example
ASCII
DATASET UNSTRUCTURED_GRID
POINTS 6462 float
-6.000000e-02 -6.000000e-02 +0.000000e+00 
-4.000000e-02 -6.000000e-02 +0.000000e+00 
-6.000000e-02 -4.000000e-02 +0.000000e+00 
-4.000000e-02 -4.000000e-02 +0.000000e+00 
-2.000000e-02 -6.000000e-02 +0.000000e+00 
+0.000000e+00 -6.000000e-02 +0.000000e+00 
-2.000000e-02 -4.000000e-02 +0.000000e+00 
+0.000000e+00 -4.000000e-02 +0.000000e+00 
+2.000000e-02 -6.000000e-02 +0.000000e+00 
+4.000000e-02 -6.000000e-02 +0.000000e+00 
+2.000000e-02 -4.000000e-02 +0.000000e+00 
+4.000000e-02 -4.000000e-02 +0.000000e+00 
+6.000000e-02 -6.000000e-02 +0.000000e+00 
+8.000000e-02 -6.000000e-02 +0.000000e+00 
+1.000000e-01 -6.000000e-02 +0.000000e+00 
+6.000000e-02 -4.000000e-02 +0.000000e+00 
+8.000000e-02 -4.000000e-02 +0.000000e+00 
+1.000000e-01 -4.000000e-02 +0.000000e+00 
+1.200000e-01 -6.000000e-02 +0.000000e+00 
+1.400000e-01 -6.000000e-02 +0.000000e+00 
+1.200000e-01 -4.000000e-02 +0.000000e+00 
+1.400000e-01 -4.000000e-02 +0.000000e+00 
+1.600000e-01 -6.000000e-02 +0.000000e+00 
+1.800000e-01 -6.000000e-02 +0.000000e+00 
+2.000000e-01 -6.000000e-02 +0.000000e+00 
+1.600000e-01 -4.000000e-02 +0.000000e+00 
+1.800000e-01 -4.000000e-02 +0.000000e+00 
+2.000000e-01 -4.000000e-02 +0.000000e+00 
+2.200000e-01 -6.000000e-02 +0.000000e+00 
+2.400000e-01 -6.000000e-02 +0.000000e+00 
+2.200000e-01 -4.000000e-02 +0.000000e+00 
+2.400000e-01 -4.000000e-02 +0.000000e+00 
+2.600000e-01 -6.000000e-02 +0.000000e+00 
+2.800000e-01 -6.000000e-02 +0.000000e+00 
+2.600000e-01 -4.000000e-02 +0.000000e+00 
+2.800000e-01 -4.000000e-02 +0.000000e+00 
+3.000000e-01 -6.000000e-02 +0.000000e+00 
+3.200000e-01 -6.000000e-02 +0.000000e+00 
+3.400000e-01 -6.000000e-02 +0.000000e+00 
+3.000000e-01 -4.000000e-02 +0.000000e+00 
+3.200000e-01 -4.000000e-02 +0.000000e+00 
+3.400000e-01 -4.000000e-02 +0.000000e+00 
+3.600000e-01 -6.000000e-02 +0.000000e+00 
+3.800000e-01 -6.000000e-02 +0.000000e+00 
+3.600000e-01 -4.000000e-02 +0.000000e+00 
+3.800000e-01 -4.000000e-02 +0.000000e+00 
+4.000000e-01 -6.000000e-02 +0.000000e+00 
+4.200000e-01 -6.000000e-02 +0.000000e+00 
+4.400000e-01 -6.000000e-02 +0.000000e+00 
+4.000000e-01 -4.000000e-02 +0.000000e+00 
+4.200000e-01 -4.000000e-02 +0.000000e+00 
+4.400000e-01 -4.000000e-02 +0.000000e+00 
+4.600000e-01 -6.000000e-02 +0.000000e+00 
+4.800000e-01 -6.000000e-02 +0.000000e+00 
+4.600000e-01 -4.000000e-02 +0.000000e+00 
+4.800000e-01 -4.000000e-02 +0.000000e+00 
+5.000000e-01 -6.000000e-02 +0.000000e+00 
+5.200000e-01 -6.000000e-02 +0.000000e+00 
+5.000000e-01 -4.000000e-02 +0.000000e+00 
+5.200000e-01 -4.000000e-02 +0.000000e+00 
+5.400000e-01 -6.000000e-02 +0.000000e+00 
+5.600000e-01 -6.000000e-02 +0.000000e+00 
+5.800000e-01 -6.000000e-02 +0.000000e+00 
+5.400000e-01 -4.000000e-02 +0.000000e+00 
+5.600000e-01 -4.000000e-02 +0.000000e+00 
+5.800000e-01 -4.000000e-02 +0.000000e+00 
+6.000000e-01 -6.000000e-02 +0.000000e+00 
+6.200000e-01 -6.000000e-02 +0.000000e+00 
+6.000000e-01 -4.000000e-02 +0.000000e+00 
+6.200000e-01 -4.000000e-02 +0.000000e+00 
+6.400000e-01 -6.000000e-02 +0.000000e+00 
+6.600000e-01 -6.000000e-02 +0.000000e+00 
+6.800000e-01 -6.000000e-02 +0.000000e+00 
+6.400000e-01 -4.000000e-02 +0.000000e+00 
+6.600000e-01 -4.000000e-02 +0.000000e+00 
+6.800000e-01 -4.000000e-02 +0.000000e+00 
+7.000000e-01 -6.000000e-02 +0.000000e+00 
+7.200000e-01 -6.000000e-02 +0.000000e+00 
+7.000000e-01 -4.000000e-02 +0.000000e+00 
+7.200000e-01 -4.000000e-02 +0.000000e+00 
+7.400000e-01 -6.000000e-02 +0.000000e+00 
+7.600000e-01 -6.000000e-02 +0.000000e+00 
+7.400000e-01 -4.000000e-02 +0.000000e+00 
+7.600000e-01 -4.000000e-02 +0.000000e+00 
+7.800000e-01 -6.000000e-02 +0.000000e+00 
+8.000000e-01 -6.000000e-02 +0.000000e+00 
+8.200000e-01 -6.000000e-02 +0.000000e+00 
+7.800000e-01 -4.000000e-02 +0.000000e+00 
+8.000000e-01 -4.000000e-02 +0.000000e+00 
+8.200000e-01 -4.000000e-02 +0.000000e+00 
+8.400000e-01 -6.000000e-02 +0.000000e+00 
+8.600000e-01 -6.000000e-02 +0.000000e+00 
+8.400000e-01 -4.000000e-02 +0.000000e+00 
+8.600000e-01 -4.000000e-02 +0.000000e+00 
+8.800000e-01 -6.000000e-02 +0.000000e+00 
+9.000000e-01 -6.000000e-02 +0.000000e+00 
+8.800000e-01 -4.000000e-02 +0.000000e+00 
+9.000000e-01 -4.000000e-02 +0.000000e+00 
+9.200000e-01 -6.000000e-02 +0.000000e+00 
+9.400000e-01 -6.000000e-02 +0.000000e+00 
+9.600000e-01 -6.000000e-02 +0.000000e+00 
+9.200000e-01 -4.000000e-02 +0.000000e+00 
+9.400000e-01 -4.000000e-02 +0.000000e+00 
+9.600000e-01 -4.000000e-02 +0.000000e+00 
+9.800000e-01 -6.000000e-02 +0.000000e+00 
+1.000000e+00 -6.000000e-02 +0.000000e+00 
+9.800000e-01 -4.000000e-02 +0.000000e+00 
+1.000000e+00 -4.000000e-02 +0.000000e+00 
+1.020000e+00 -6.000000e-02 +0.000000e+00 
+1.040000e+00 -6.000000e-02 +0.000000e+00 
+1.060000e+00 -6.000000e-02 +0.000000e+00 
+1.020000e+00 -4.000000e-02 +0.000000e+00 
+1.040000e+00 -4.000000e-02 +0.000000e+00 
+1.060000e+00 -4.000000e-02 +0.000000e+00 
+1.080000e+00 -6.000000e-02 +0.000000e+00 
+1.100000e+00 -6.000000e-02 +0.000000e+00 
+1.080000e+00 -4.000000e-02 +0.000000e+00 
+1.100000e+00 -4.000000e-02 +0.000000e+00 
+1.120000e+00 -6.000000e-02 +0.000000e+00 
+1.140000e+00 -6.000000e-02 +0.000000e+00 
+1.160000e+00 -6.000000e-02 +0.000000e+00 
+1.120000e+00 -4.000000e-02 +0.000000e+00 
+1.140000e+00 -4.000000e-02 +0.000000e+00 
+1.160000e+00 -4.000000e-02 +0.000000e+00 
+1.180000e+00 -6.000000e-02 +0.000000e+00 
+1.200000e+00 -6.000000e-02 +0.000000e+00 
+1.180000e+00 -4.000000e-02 +0.000000e+00 
+1.200000e+00 -4.000000e-02 +0.000000e+00 
+1.220000e+00 -6.000000e-02 +0.000000e+00 
+1.240000e+00 -6.000000e-02 +0.000000e+00 
+1.220000e+00 -4.000000e-02 +0.000000e+00 
+1.240000e+00 -4.000000e-02 +0.000000e+00 
+1.260000e+00 -6.000000e-02 +0.000000e+00 
+1.280000e+00 -6.000000e-02 +0.000000e+00 
+1.300000e+00 -6.000000e-02 +0.000000e+00 
+1.260000e+00 -4.000000e-02 +0.000000e+00 
+1.280000e+00 -4.000000e-02 +0.000000e+00 
+1.300000e+00 -4.000000e-02 +0.000000e+00 
+1.320000e+00 -6.000000e-02 +0.000000e+00 
+1.340000e+00 -6.000000e-02 +0.000000e+00 
+1.320000e+00 -4.000000e-02 +0.000000e+00 
+1.340000e+00 -4.000000e-02 +0.000000e+00 
+1.360000e+00 -6.000000e-02 +0.000000e+00 
+1.380000e+00 -6.000000e-02 +0.000000e+00 
+1.400000e+00 -6.000000e-02 +0.000000e+00 
+1.360000e+00 -4.000000e-02 +0.000000e+00 
+1.380000e+00 -4.000000e-02 +0.000000e+00 
+1.400000e+00 -4.000000e-02 +0.000000e+00 
+1.420000e+00 -6.000000e-02 +0.000000e+00 
+1.440000e+00 -6.000000e-02 +0.000000e+00 
+1.420000e+00 -4.000000e-02 +0.000000e+00 
+1.440000e+00 -4.000000e-02 +0.000000e+00 
+1.460000e+00 -6.000000e-02 +0.000000e+00 
+1.480000e+00 -6.000000e-02 +0.000000e+00 
+1.460000e+00 -4.000000e-02 +0.000000e+00 
+1.480000e+00 -4.000000e-02 +0.000000e+00 
+1.500000e+00 -6.000000e-02 +0.000000e+00 
+1.520000e+00 -6.000000e-02 +0.000000e+00 
+1.540000e+00 -6.000000e-02 +0.000000e+00 
+1.500000e+00 -4.000000e-02 +0.000000e+00 
+1.520000e+00 -4.000000e-02 +0.000000e+00 
+1.540000e+00 -4.000000e-02 +0.000000e+00 
+1.560000e+00 -6.000000e-02 +0.000000e+00 
+1.580000e+00 -6.000000e-02 +0.000000e+00 
+1.560000e+00 -4.000000e-02 +0.000000e+00 
+1.580000e+00 -4.000000e-02 +0.000000e+00 
+1.600000e+00 -6.000000e-02 +0.000000e+00 
+1.620000e+00 -6.000000e-02 +0.000000e+00 
+1.640000e+00 -6.000000e-02 +0.000000e+00 
+1.600000e+00 -4.000000e-02 +0.000000e+00 
+1.620000e+00 -4.000000e-02 +0.000000e+00 
+1.640000e+00 -4.000000e-02 +0.000000e+00 
+1.660000e+00 -6.000000e-02 +0.000000e+00 
+1.680000e+00 -6.000000e-02 +0.000000e+00 
+1.660000e+00 -4.000000e-02 +0.000000e+00 
+1.680000e+00 -4.000000e-02 +0.000000e+00 
+1.700000e+00 -6.000000e-02 +0.000000e+00 
+1.720000e+00 -6.000000e-02 +0.000000e+00 
+1.700000e+00 -4.000000e-02 +0.000000e+00 
+1.720000e+00 -4.000000e-02 +0.000000e+00 
+1.740000e+00 -6.000000e-02 +0.000000e+00 
+1.760000e+00 -6.000000e-02 +0.000000e+00 
+1.780000e+00 -6.000000e-02 +0.000000e+00 
+1.740000e+00 -4.000000e-02 +0.000000e+00 
+1.760000e+00 -4.000000e-02 +0.000000e+00 
+1.780000e+00 -4.000000e-02 +0.000000e+00 
+1.800000e+00 -6.000000e-02 +0.000000e+00 
+1.820000e+00 -6.000000e-02 +0.000000e+00 
+1.800000e+00 -4.000000e-02 +0.000000e+00 
+1.820000e+00 -4.000000e-02 +0.000000e+00 
+1.840000e+00 -6.000000e-02 +0.000000e+00 
+1.860000e+00 -6.000000e-02 +0.000000e+00 
+1.880000e+00 -6.000000e-02 +0.000000e+00 
+1.840000e+00 -4.000000e-02 +0.000000e+00 
+1.860000e+00 -4.000000e-02 +0.000000e+00 
+1.880000e+00 -4.000000e-02 +0.000000e+00 
+1.900000e+00 -6.000000e-02 +0.000000e+00 
+1.920000e+00 -6.000000e-02 +0.000000e+00 
+1.900000e+00 -4.000000e-02 +0.000000e+00 
+1.920000e+00 -4.000000e-02 +0.000000e+00 
+1.940000e+00 -6.000000e-02 +0.000000e+00 
+1.960000e+00 -6.000000e-02 +0.000000e+00 
+1.940000e+00 -4.000000e-02 +0.000000e+00 
+1.960000e+00 -4.000000e-02 +0.000000e+00 
+1.980000e+00 -6.000000e-02 +0.000000e+00 
+2.000000e+00 -6.000000e-02 +0.000000e+00 
+2.020000e+00 -6.000000e-02 +0.000000e+00 
+1.980000e+00 -4.000000e-02 +0.000000e+00 
+2.000000e+00 -4.000000e-02 +0.000000e+00 
+2.020000e+00 -4.000000e-02 +0.000000e+00 
+2.040000e+00 -6.000000e-02 +0.000000e+00 
+2.060000e+00 -6.000000e-02 +0.000000e+00 
+2.040000e+00 -4.000000e-02 +0.000000e+00 
+2.060000e+00 -4.000000e-02 +0.000000e+00 
+2.080000e+00 -6.000000e-02 +0.000000e+00 
+2.100000e+00 -6.000000e-02 +0.000000e+00 
+2.120000e+00 -6.000000e-02 +0.000000e+00 
+2.080000e+00 -4.000000e-02 +0.000000e+00 
+2.100000e+00 -4.000000e-02 +0.000000e+00 
+2.120000e+00 -4.000000e-02 +0.000000e+00 
+2.140000e+00 -6.000000e-02 +0.000000e+00 
+2.160000e+00 -6.000000e-02 +0.000000e+00 
+2.140000e+00 -4.000000e-02 +0.000000e+00 
+2.160000e+00 -4.000000e-02 +0.000000e+00 
+2.180000e+00 -6.000000e-02 +0.000000e+00 
+2.200000e+00 -6.000000e-02 +0.000000e+00 
+2.180000e+00 -4.000000e-02 +0.000000e+00 
+2.200000e+00 -4.000000e-02 +0.000000e+00 
+2.220000e+00 -6.000000e-02 +0.000000e+00 
+2.240000e+00 -6.000000e-02 +0.000000e+00 
[...]
POINT_DATA 6462 
SCALARS density float 1 
LOOKUP_TABLE default
+1.002640e+03 
+1.002630e+03 
+1.002621e+03 
+1.002610e+03 
+1.002618e+03 
+1.002607e+03 
+1.002595e+03 
+1.002584e+03 
+1.002599e+03 
+1.002591e+03 
+1.002578e+03 
+1.002572e+03 
+1.002582e+03 
+1.002571e+03 
+1.002558e+03 
+1.002564e+03 
+1.002552e+03 
+1.002538e+03 
+1.002543e+03 
+1.002529e+03 
+1.002523e+03 
+1.002507e+03 
+1.002517e+03 
+1.002510e+03 
+1.002508e+03 
+1.002494e+03 
+1.002488e+03 
+1.002489e+03 
+1.002507e+03 
+1.002508e+03 
+1.002488e+03 
+1.002491e+03 
+1.002509e+03 
+1.002509e+03 
+1.002494e+03 
+1.002494e+03 
+1.002507e+03 
+1.002507e+03 
+1.002509e+03 
+1.002491e+03 
+1.002490e+03 
+1.002494e+03 
+1.002510e+03 
+1.002502e+03 
+1.002513e+03 
+1.002488e+03 
+1.002495e+03 
+1.002497e+03 
+1.002503e+03 
+1.002475e+03 
+1.002486e+03 
+1.002496e+03 
+1.002509e+03 
+1.002513e+03 
+1.002503e+03 
+1.002510e+03 
+1.002516e+03 
+1.002519e+03 
+1.002508e+03 
+1.002518e+03 
+1.002522e+03 
+1.002525e+03 
+1.002530e+03 
+1.002522e+03 
+1.002522e+03 
+1.002526e+03 
+1.002538e+03 
+1.002545e+03 
+1.002541e+03 
+1.002547e+03 
+1.002549e+03 
+1.002549e+03 
+1.002558e+03 
+1.002558e+03 
+1.002538e+03 
+1.002554e+03 
+1.002572e+03 
+1.002581e+03 
+1.002572e+03 
+1.002596e+03 
+1.002581e+03 
+1.002584e+03 
+1.002569e+03 
+1.002586e+03 
+1.002584e+03 
+1.002576e+03 
+1.002563e+03 
+1.002591e+03 
+1.002575e+03 
+1.002557e+03 
+1.002550e+03 
+1.002539e+03 
+1.002543e+03 
+1.002529e+03 
+1.002530e+03 
+1.002522e+03 
+1.002515e+03 
+1.002527e+03 
+1.002511e+03 
+1.002512e+03 
+1.002513e+03 
+1.002478e+03 
+1.002498e+03 
+1.002514e+03 
+1.002500e+03 
+1.002477e+03 
+1.002494e+03 
+1.002455e+03 
+1.002453e+03 
+1.002432e+03 
+1.002407e+03 
+1.002427e+03 
+1.002423e+03 
+1.002391e+03 
+1.002378e+03 
+1.002354e+03 
+1.002353e+03 
+1.002332e+03 
+1.002336e+03 
+1.002330e+03 
+1.002328e+03 
+1.002307e+03 
+1.002306e+03 
+1.002323e+03 
+1.002314e+03 
+1.002285e+03 
+1.002312e+03 
+1.002276e+03 
+1.002256e+03 
+1.002250e+03 
+1.002204e+03 
+1.002241e+03 
+1.002248e+03 
+1.002242e+03 
+1.002240e+03 
+1.002235e+03 
+1.002224e+03 
+1.002224e+03 
+1.002237e+03 
+1.002223e+03 
+1.002245e+03 
+1.002211e+03 
+1.002206e+03 
+1.002189e+03 
+1.002178e+03 
+1.002206e+03 
+1.002171e+03 
+1.002179e+03 
+1.002162e+03 
+1.002136e+03 
+1.002179e+03 
+1.002112e+03 
+1.002119e+03 
+1.002104e+03 
+1.002124e+03 
+1.002098e+03 
+1.002095e+03 
+1.002093e+03 
+1.002098e+03 
+1.002089e+03 
+1.002090e+03 
+1.002098e+03 
+1.002106e+03 
+1.002117e+03 
+1.002116e+03 
+1.002119e+03 
+1.002131e+03 
+1.002141e+03 
+1.002141e+03 
+1.002140e+03 
+1.002159e+03 
+1.002149e+03 
+1.002142e+03 
+1.002147e+03 
+1.002135e+03 
+1.002161e+03 
+1.002135e+03 
+1.002090e+03 
+1.002176e+03 
+1.002082e+03 
+1.002043e+03 
+1.002015e+03 
+1.002009e+03 
+1.002030e+03 
+1.001981e+03 
+1.002002e+03 
+1.002009e+03 
+1.002008e+03 
+1.002006e+03 
+1.002000e+03 
+1.002004e+03 
+1.001986e+03 
+1.001968e+03 
+1.002017e+03 
+1.001988e+03 
+1.001937e+03 
+1.001958e+03 
+1.001929e+03 
+1.001976e+03 
+1.001941e+03 
+1.001884e+03 
+1.001855e+03 
+1.001844e+03 
+1.001834e+03 
+1.001838e+03 
+1.001816e+03 
+1.001776e+03 
+1.001824e+03 
+1.001827e+03 
+1.001775e+03 
+1.001724e+03 
+1.001679e+03 
+1.001697e+03 
+1.001658e+03 
+1.001649e+03 
+1.001634e+03 
+1.001633e+03 
+1.001627e+03 
+1.001613e+03 
+1.001619e+03 
+1.001641e+03 
+1.001644e+03 
+1.001644e+03 
+1.001659e+03 
+1.001637e+03 
+1.001633e+03 
+1.001629e+03 
+1.001636e+03 
+1.001635e+03 
+1.001642e+03 
+1.001628e+03 
+1.001634e+03 
+1.001659e+03 
+1.001673e+03 
+1.001593e+03 
+1.001584e+03 
+1.001535e+03 
+1.001607e+03 
+1.001577e+03 
+1.001580e+03 
+1.001573e+03 
+1.001540e+03 
+1.001587e+03 
+1.001573e+03 
+1.001560e+03 
+1.001553e+03 
+1.001529e+03 
+1.001524e+03 
+1.001553e+03 
+1.001530e+03 
+1.001578e+03 
+1.001491e+03 
+1.001501e+03 
+1.001463e+03 
+1.001429e+03 
+1.001504e+03 
+1.001432e+03 
+1.001407e+03 
+1.001404e+03 
+1.001396e+03 
+1.001377e+03 
+1.001399e+03 
+1.001385e+03 
+1.001363e+03 
+1.001354e+03 
+1.001400e+03 
+1.001358e+03 
+1.001288e+03 
+1.001379e+03 
+1.001369e+03 
+1.001458e+03 
+1.001355e+03 
+1.001351e+03 
+1.001324e+03 
+1.001365e+03 
+1.001333e+03 
+1.001297e+03 
+1.001287e+03 
+1.001270e+03 
+1.001253e+03 
+1.001315e+03 
+1.001234e+03 
+1.001267e+03 
+1.001254e+03 
+1.001291e+03 
+1.001252e+03 
+1.001239e+03 
+1.001212e+03 
+1.001172e+03 
+1.001245e+03 
+1.001245e+03 
+1.001139e+03 
+1.001151e+03 
+1.001137e+03 
+1.001197e+03 
+1.001066e+03 
+1.001176e+03 
+1.001196e+03 
+1.001221e+03 
+1.001223e+03 
+1.001206e+03 
+1.001226e+03 
+1.001234e+03 
+1.001191e+03 
+1.001237e+03 
+1.001271e+03 
+1.001212e+03 
+1.001208e+03 
+1.001175e+03 
+1.001154e+03 
+1.001227e+03 
+1.001230e+03 
+1.001231e+03 
+1.001257e+03 
+1.001195e+03 
+1.001238e+03 
+1.001229e+03 
+1.001228e+03 
+1.001231e+03 
+1.001186e+03 
+1.001253e+03 
+1.001286e+03 
+1.001217e+03 
+1.001296e+03 
+1.001298e+03 
+1.001293e+03 
+1.001304e+03 
+1.001301e+03 
+1.001243e+03 
+1.001375e+03 
+1.001287e+03 
+1.001272e+03 
+1.001266e+03 
+1.001324e+03 
+1.001246e+03 
+1.001239e+03 
+1.001242e+03 
+1.001231e+03 
+1.001257e+03 
+1.001214e+03 
+1.001279e+03 
+1.001310e+03 
+1.001298e+03 
+1.001357e+03 
+1.001316e+03 
+1.001352e+03 
+1.001242e+03 
+1.001420e+03 
+1.001344e+03 
+1.001316e+03 
+1.001310e+03 
+1.001358e+03 
+1.001274e+03 
+1.001270e+03 
+1.001341e+03 
+1.001358e+03 
+1.001360e+03 
+1.001388e+03 
+1.001339e+03 
+1.001334e+03 
+1.001329e+03 
+1.001322e+03 
+1.001353e+03 
+1.001330e+03 
+1.001336e+03 
+1.001348e+03 
+1.001357e+03 
+1.001362e+03 
+1.001366e+03 
+1.001395e+03 
+1.001347e+03 
+1.001457e+03 
+1.001416e+03 
+1.001448e+03 
+1.001480e+03 
+1.001404e+03 
+1.001425e+03 
+1.001651e+03 
+1.001414e+03 
+1.001362e+03 
+1.001422e+03 
+1.001326e+03 
+1.001373e+03 
+1.001408e+03 
+1.001456e+03 
+1.001397e+03 
+1.001418e+03 
+1.001493e+03 
+1.001483e+03 
+1.001450e+03 
+1.001543e+03 
+1.001496e+03 
+1.001371e+03 
+1.001253e+03 
+1.001421e+03 
+1.001310e+03 
+1.001117e+03 
+1.001034e+03 
+1.001026e+03 
+1.001103e+03 
+1.000990e+03 
+1.001074e+03 
+1.001021e+03 
+1.001045e+03 
+1.001047e+03 
+1.000997e+03 
+1.001147e+03 
+1.001292e+03 
+1.001455e+03 
+1.001140e+03 
+1.001273e+03 
+1.001595e+03 
+1.001524e+03 
+1.001494e+03 
+1.001611e+03 
+1.001528e+03 
+1.001425e+03 
+1.001338e+03 
+1.001428e+03 
+1.001265e+03 
+1.001274e+03 
+1.001177e+03 
+1.001113e+03 
+1.001294e+03 
+1.001135e+03 
+1.000987e+03 
+1.001132e+03 
+1.001124e+03 
+1.001189e+03 
+1.001095e+03 
+1.001144e+03 
+1.001142e+03 
+1.001181e+03 
+1.001191e+03 
+1.001114e+03 
+1.001078e+03 
+1.001108e+03 
+1.001163e+03 
+1.001034e+03 
+1.001011e+03 
+1.001207e+03 
+1.001186e+03 
+1.001333e+03 
+1.001293e+03 
+1.001061e+03 
+1.000954e+03 
+1.000950e+03 
+1.001031e+03 
+1.000846e+03 
+1.000921e+03 
+1.000967e+03 
+1.000989e+03 
+1.000960e+03 
+1.000946e+03 
+1.001033e+03 
+1.001025e+03 
+1.000999e+03 
+1.001085e+03 
+1.001034e+03 
+1.001027e+03 
+1.000949e+03 
+1.000879e+03 
+1.000977e+03 
+1.000940e+03 
+1.000780e+03 
+1.000692e+03 
+1.000787e+03 
+1.000673e+03 
+1.000629e+03 
+1.000566e+03 
+1.000532e+03 
+1.000654e+03 
+1.000575e+03 
+1.000528e+03 
+1.000520e+03 
+1.000545e+03 
+1.000529e+03 
+1.000555e+03 
+1.000581e+03 
+1.000551e+03 
+1.000719e+03 
+1.000603e+03 
+1.000512e+03 
+1.000590e+03 
+1.000705e+03 
+1.000423e+03 
+1.000510e+03 
+1.000860e+03 
+1.000682e+03 
+1.000543e+03 
+1.000795e+03 
+1.000484e+03 
+1.000456e+03 
+1.000406e+03 
+1.000299e+03 
+1.000445e+03 
+1.000531e+03 
+1.000383e+03 
+1.000210e+03 
+1.000196e+03 
+1.000246e+03 
+1.000104e+03 
+1.000394e+03 
+1.000716e+03 
+1.000898e+03 
+1.000358e+03 
+1.001002e+03 
+1.001106e+03 
+1.000928e+03 
+1.001025e+03 
+1.000903e+03 
+1.000830e+03 
+1.001288e+03 
+1.001593e+03 
+1.001280e+03 
+1.001569e+03 
+1.001909e+03 
+1.002217e+03 
+1.002460e+03 
+1.001887e+03 
+1.002250e+03 
+1.002505e+03 
+1.002612e+03 
+1.002618e+03 
+1.002712e+03 
+1.002701e+03 
+1.002514e+03 
+1.002392e+03 
+1.002318e+03 
+1.002511e+03 
+1.002320e+03 
+1.002200e+03 
+1.002333e+03 
+1.002390e+03 
+1.002243e+03 
+1.002338e+03 
+1.002435e+03 
+1.002477e+03 
+1.002352e+03 
+1.002358e+03 
+1.002534e+03 
+1.002608e+03 
+1.002691e+03 
+1.002410e+03 
+1.002486e+03 
+1.002581e+03 
+1.002771e+03 
+1.002830e+03 
+1.002686e+03 
+1.002759e+03 
+1.002590e+03 
+1.002575e+03 
+1.002550e+03 
+1.002533e+03 
+1.002549e+03 
+1.002532e+03 
+1.002493e+03 
+1.002485e+03 
+1.002539e+03 
+1.002538e+03 
+1.002504e+03 
+1.002502e+03 
+1.002530e+03 
+1.002519e+03 
+1.002503e+03 
+1.002493e+03 
+1.002475e+03 
+1.002487e+03 
+1.002468e+03 
+1.002457e+03 
+1.002438e+03 
+1.002409e+03 
+1.002449e+03 
+1.002444e+03 
+1.002459e+03 
+1.002414e+03 
+1.002409e+03 
+1.002446e+03 
+1.002455e+03 
+1.002380e+03 
+1.002430e+03 
+1.002403e+03 
+1.002469e+03 
+1.002464e+03 
+1.002432e+03 
+1.002424e+03 
+1.002459e+03 
+1.002456e+03 
+1.002432e+03 
+1.002394e+03 
+1.002449e+03 
+1.002562e+03 
+1.002452e+03 
+1.002415e+03 
+1.002442e+03 
+1.002477e+03 
+1.002439e+03 
+1.002479e+03 
+1.002484e+03 
+1.002456e+03 
+1.002470e+03 
+1.002471e+03 
+1.002537e+03 
+1.002518e+03 
+1.002509e+03 
+1.002480e+03 
+1.002480e+03 
+1.002500e+03 
+1.002504e+03 
+1.002520e+03 
+1.002540e+03 
+1.002527e+03 
+1.002508e+03 
+1.002503e+03 
+1.002530e+03 
+1.002510e+03 
+1.002551e+03 
+1.002565e+03 
+1.002652e+03 
+1.002462e+03 
+1.002559e+03 
+1.002539e+03 
+1.002563e+03 
+1.002565e+03 
+1.002670e+03 
+1.002518e+03 
+1.002554e+03 
+1.002551e+03 
+1.002496e+03 
+1.002606e+03 
+1.002543e+03 
+1.002503e+03 
+1.002613e+03 
+1.002539e+03 
+1.002548e+03 
+1.002476e+03 
+1.002528e+03 
+1.002517e+03 
+1.002548e+03 
+1.002444e+03 
+1.002445e+03 
+1.002595e+03 
+1.002435e+03 
+1.002514e+03 
+1.002459e+03 
+1.002381e+03 
+1.002504e+03 
+1.002521e+03 
+1.002419e+03 
+1.002383e+03 
+1.002443e+03 
+1.002452e+03 
+1.002329e+03 
+1.002309e+03 
+1.002402e+03 
+1.002340e+03 
+1.002390e+03 
+1.002352e+03 
+1.002282e+03 
+1.002270e+03 
+1.002321e+03 
+1.002224e+03 
+1.002274e+03 
+1.002201e+03 
+1.002299e+03 
+1.002324e+03 
+1.002319e+03 
+1.002251e+03 
+1.002292e+03 
+1.002309e+03 
+1.002187e+03 
+1.002206e+03 
+1.002268e+03 
+1.002007e+03 
+1.002290e+03 
+1.002140e+03 
+1.002140e+03 
+1.002247e+03 
+1.002153e+03 
+1.002147e+03 
+1.002169e+03 
+1.002084e+03 
+1.002343e+03 
+1.002108e+03 
+1.002167e+03 
+1.002120e+03 
+1.002272e+03 
+1.002126e+03 
+1.002175e+03 
+1.002162e+03 
+1.002158e+03 
+1.002268e+03 
+1.002002e+03 
+1.002058e+03 
+1.002098e+03 
+1.002188e+03 
+1.002044e+03 
+1.002028e+03 
+1.002059e+03 
+1.002069e+03 
+1.002082e+03 
+1.002157e+03 
+1.002069e+03 
+1.002164e+03 
+1.002133e+03 
+1.002122e+03 
+1.002115e+03 
+1.002117e+03 
+1.002101e+03 
+1.002184e+03 
+1.002191e+03 
+1.002145e+03 
+1.002095e+03 
+1.002066e+03 
+1.002091e+03 
+1.002176e+03 
+1.002152e+03 
+1.001983e+03 
+1.002064e+03 
+1.002333e+03 
+1.001978e+03 
+1.002039e+03 
+1.002048e+03 
+1.002023e+03 
+1.001903e+03 
+1.002003e+03 
+1.001998e+03 
+1.002010e+03 
+1.002024e+03 
+1.001990e+03 
+1.001979e+03 
+1.001824e+03 
+1.002067e+03 
+1.001963e+03 
+1.001796e+03 
+1.001902e+03 
+1.001891e+03 
+1.002094e+03 
+1.001941e+03 
+1.001752e+03 
+1.001769e+03 
+1.001714e+03 
+1.001830e+03 
+1.001719e+03 
+1.001771e+03 
+1.001834e+03 
+1.001826e+03 
+1.001761e+03 
+1.001614e+03 
+1.001629e+03 
+1.001635e+03 
+1.001597e+03 
+1.001697e+03 
+1.001553e+03 
+1.001576e+03 
+1.001652e+03 
+1.001592e+03 
+1.001757e+03 
+1.001583e+03 
+1.001648e+03 
+1.001680e+03 
+1.001553e+03 
+1.001567e+03 
+1.001561e+03 
+1.001694e+03 
+1.001639e+03 
+1.001614e+03 
+1.001607e+03 
+1.001729e+03 
+1.001837e+03 
+1.001525e+03 
+1.001678e+03 
+1.001195e+03 
+1.001864e+03 
+1.001562e+03 
+1.001412e+03 
+1.001403e+03 
+1.001641e+03 
+1.001469e+03 
+1.001698e+03 
+1.001104e+03 
+1.001673e+03 
+1.001312e+03 
+1.001608e+03 
+1.001185e+03 
+1.001713e+03 
+1.001305e+03 
+1.001365e+03 
+1.001325e+03 
+1.001300e+03 
+1.001550e+03 
+1.001236e+03 
+1.001516e+03 
+1.001230e+03 
+1.001242e+03 
+1.001424e+03 
+1.001349e+03 
+1.001233e+03 
+1.001430e+03 
+1.001461e+03 
+1.000787e+03 
+1.001356e+03 
+1.001038e+03 
+1.001925e+03 
+1.001124e+03 
+1.001259e+03 
+1.001404e+03 
+1.001468e+03 
+1.001380e+03 
+1.001035e+03 
+1.001126e+03 
+1.000960e+03 
+1.001639e+03 
+1.000955e+03 
+1.001193e+03 
+1.000944e+03 
+1.001469e+03 
+1.001062e+03 
+1.001340e+03 
+1.000890e+03 
+1.001249e+03 
+1.001502e+03 
+1.000833e+03 
+1.001161e+03 
+1.001394e+03 
+1.001424e+03 
+1.001673e+03 
+1.000247e+03 
+1.001102e+03 
+1.001339e+03 
+1.001859e+03 
+1.001116e+03 
+1.001201e+03 
+1.001277e+03 
+1.001192e+03 
+1.001240e+03 
+1.001424e+03 
+1.000882e+03 
+1.001445e+03 
+1.001068e+03 
+1.001012e+03 
+1.000994e+03 
+1.001436e+03 
+1.001021e+03 
+1.001283e+03 
+1.001235e+03 
+1.000542e+03 
+1.001143e+03 
+1.001076e+03 
+1.001618e+03 
+1.000713e+03 
+1.001262e+03 
+1.001223e+03 
+1.001329e+03 
+1.000982e+03 
+1.001520e+03 
+1.000785e+03 
+1.001720e+03 
+1.000700e+03 
+1.001505e+03 
+1.000876e+03 
+1.001698e+03 
+1.001204e+03 
+1.001055e+03 
+1.000747e+03 
+1.001696e+03 
+1.000938e+03 
+1.001144e+03 
+1.001273e+03 
+1.001277e+03 
+1.001853e+03 
+1.001290e+03 
+1.000520e+03 
+1.001940e+03 
+1.000837e+03 
+1.001120e+03 
+1.001095e+03 
+1.001409e+03 
+1.000931e+03 
+1.001443e+03 
+1.000862e+03 
+1.001282e+03 
+1.001802e+03 
+1.001441e+03 
+1.000983e+03 
+1.001736e+03 
+1.001073e+03 
+1.000818e+03 
+1.001294e+03 
+1.000712e+03 
+1.001295e+03 
+1.001432e+03 
+1.001072e+03 
+1.001243e+03 
+1.001453e+03 
+1.001203e+03 
+1.001319e+03 
+1.001508e+03 
+1.000901e+03 
+1.002544e+03 
+1.000788e+03 
+1.001738e+03 
+1.000897e+03 
+1.001370e+03 
+1.001094e+03 
+1.001105e+03 
+1.001716e+03 
+1.001433e+03 
+1.001291e+03 
+1.001333e+03 
+1.000836e+03 
+1.001844e+03 
+1.001398e+03 
+1.001651e+03 
+1.000808e+03 
+1.001506e+03 
+1.001628e+03 
+1.001504e+03 
+1.001318e+03 
+1.001519e+03 
+1.001030e+03 
+1.000526e+03 
+1.001559e+03 
+1.000976e+03 
+1.001354e+03 
+1.000963e+03 
+1.001030e+03 
+1.000607e+03 
+1.001388e+03 
+1.001640e+03 
+1.000536e+03 
+1.002075e+03 
+1.000137e+03 
+1.001881e+03 
+1.001996e+03 
+1.001197e+03 
+1.000923e+03 
+1.001419e+03 
+1.001838e+03 
+1.000771e+03 
+1.001626e+03 
+1.001832e+03 
+1.001086e+03 
+1.000151e+03 
+1.000974e+03 
+1.001350e+03 
+1.002323e+03 
+1.000123e+03 
+1.000936e+03 
+1.001842e+03 
+1.001053e+03 
+1.000968e+03 
+1.000964e+03 
+1.001475e+03 
+1.001031e+03 
+1.000101e+03 
+1.001176e+03 
+1.000686e+03 
+1.002334e+03 
+1.001344e+03 
+1.000762e+03 
+1.001312e+03 
+1.000486e+03 
+1.001123e+03 
+1.000017e+03 
+1.001303e+03 
+1.000641e+03 
+1.000461e+03 
+1.001122e+03 
+1.000240e+03 
+1.000319e+03 
+1.000540e+03 
+1.000705e+03 
+1.001913e+03 
+1.000623e+03 
+1.001176e+03 
+9.999183e+02 
+1.001009e+03 
+1.000905e+03 
+1.001252e+03 
+1.000859e+03 
+1.000555e+03 
+1.000683e+03 
+1.000569e+03 
+1.000678e+03 
+1.001101e+03 
+1.000093e+03 
+1.000876e+03 
+9.999506e+02 
+1.001188e+03 
+1.000223e+03 
+1.000542e+03 
+1.000273e+03 
+1.000440e+03 
+1.000061e+03 
+1.001336e+03 
+1.001051e+03 
+1.000885e+03 
+9.996646e+02 
+9.996084e+02 
+1.000441e+03 
+1.001479e+03 
+1.001511e+03 
+9.996494e+02 
+1.001073e+03 
+1.000310e+03 
+1.001665e+03 
+9.997245e+02 
+1.000012e+03 
+1.001176e+03 
+9.994678e+02 
+1.000394e+03 
+1.000601e+03 
+9.994120e+02 
+1.001898e+03 
+1.002071e+03 
+1.000607e+03 
+1.000088e+03 
+1.001121e+03 
+1.001224e+03 
+1.000478e+03 
+1.001745e+03 
+1.001323e+03 
+1.001484e+03 
+1.001635e+03 
+1.001731e+03 
+1.002625e+03 
+1.002218e+03 
+1.002073e+03 
+1.001826e+03 
+1.003255e+03 
+1.002953e+03 
+1.003056e+03 
+1.002218e+03 
+1.002340e+03 
+1.002357e+03 
+1.002366e+03 
+1.001667e+03 
+1.002212e+03 
+1.002052e+03 
+1.002452e+03 
+1.001924e+03 
+1.002137e+03 
+1.002081e+03 
+1.002190e+03 
+1.002198e+03 
+1.002157e+03 
+1.002229e+03 
+1.002328e+03 
+1.002091e+03 
+1.002145e+03 
+1.002548e+03 
+1.002653e+03 
+1.002416e+03 
+1.002537e+03 
+1.002505e+03 
+1.002488e+03 
+1.002454e+03 
+1.002438e+03 
+1.002463e+03 
+1.002460e+03 
+1.002411e+03 
+1.002399e+03 
+1.002437e+03 
+1.002478e+03 
+1.002371e+03 
+1.002426e+03 
+1.002465e+03 
+1.002360e+03 
+1.002449e+03 
+1.002397e+03 
+1.002382e+03 
+1.002430e+03 
+1.002299e+03 
+1.002331e+03 
+1.002316e+03 
+1.002406e+03 
+1.002356e+03 
+1.002391e+03 
+1.002327e+03 
+1.002245e+03 
+1.002279e+03 
+1.002371e+03 
+1.002388e+03 
+1.002332e+03 
+1.002318e+03 
+1.002263e+03 
+1.002247e+03 
+1.002314e+03 
+1.002362e+03 
+1.002257e+03 
+1.002381e+03 
+1.002298e+03 
+1.002213e+03 
+1.002305e+03 
+1.002361e+03 
+1.002375e+03 
+1.002236e+03 
+1.002214e+03 
+1.002209e+03 
+1.002262e+03 
+1.002358e+03 
+1.002323e+03 
+1.002398e+03 
+1.002253e+03 
+1.002236e+03 
+1.002378e+03 
+1.002288e+03 
+1.002378e+03 
+1.002243e+03 
+1.002214e+03 
+1.002316e+03 
+1.002378e+03 
+1.002323e+03 
+1.002436e+03 
+1.002234e+03 
+1.002267e+03 
+1.002331e+03 
+1.002408e+03 
+1.002291e+03 
+1.002368e+03 
+1.002437e+03 
+1.002304e+03 
+1.002397e+03 
+1.002348e+03 
+1.002410e+03 
+1.002451e+03 
+1.002383e+03 
+1.002286e+03 
+1.002333e+03 
+1.002443e+03 
+1.002388e+03 
+1.002317e+03 
+1.002392e+03 
+1.002481e+03 
+1.002423e+03 
+1.002348e+03 
+1.002471e+03 
+1.002430e+03 
+1.002466e+03 
+1.002304e+03 
+1.002356e+03 
+1.002448e+03 
+1.002533e+03 
+1.002358e+03 
+1.002449e+03 
+1.002487e+03 
+1.002398e+03 
+1.002446e+03 
+1.002519e+03 
+1.002375e+03 
+1.002439e+03 
+1.002342e+03 
+1.002383e+03 
+1.002478e+03 
+1.002448e+03 
+1.002542e+03 
+1.002425e+03 
+1.002503e+03 
+1.002335e+03 
+1.002414e+03 
+1.002484e+03 
+1.002365e+03 
+1.002301e+03 
+1.002473e+03 
+1.002388e+03 
+1.002314e+03 
+1.002383e+03 
+1.002464e+03 
+1.002291e+03 
+1.002474e+03 
+1.002386e+03 
+1.002297e+03 
+1.002396e+03 
+1.002296e+03 
+1.002426e+03 
+1.002234e+03 
+1.002421e+03 
+1.002305e+03 
+1.002254e+03 
+1.002419e+03 
+1.002337e+03 
+1.002198e+03 
+1.002285e+03 
+1.002369e+03 
+1.002251e+03 
+1.002369e+03 
+1.002316e+03 
+1.002209e+03 
+1.002229e+03 
+1.002302e+03 
+1.002173e+03 
+1.002226e+03 
+1.002310e+03 
+1.002130e+03 
+1.002161e+03 
+1.002305e+03 
+1.002180e+03 
+1.002085e+03 
+1.002150e+03 
+1.002231e+03 
+1.002103e+03 
+1.002186e+03 
+1.002253e+03 
+1.002103e+03 
+1.002147e+03 
+1.002109e+03 
+1.002121e+03 
+1.002081e+03 
+1.002139e+03 
+1.002190e+03 
+1.002009e+03 
+1.002135e+03 
+1.001981e+03 
+1.002114e+03 
+1.002138e+03 
+1.002032e+03 
+1.002132e+03 
+1.002083e+03 
+1.001975e+03 
+1.002135e+03 
+1.001998e+03 
+1.002073e+03 
+1.001981e+03 
+1.002039e+03 
+1.002151e+03 
+1.001969e+03 
+1.001961e+03 
+1.001999e+03 
+1.002096e+03 
+1.002120e+03 
+1.001987e+03 
+1.001990e+03 
+1.002058e+03 
+1.002000e+03 
+1.001891e+03 
+1.002069e+03 
+1.001979e+03 
+1.002034e+03 
+1.001954e+03 
+1.001993e+03 
+1.002026e+03 
+1.001885e+03 
+1.001970e+03 
+1.001993e+03 
+1.001894e+03 
+1.001964e+03 
+1.002013e+03 
+1.001910e+03 
+1.001992e+03 
+1.002041e+03 
+1.001863e+03 
+1.001988e+03 
+1.002079e+03 
+1.001944e+03 
+1.002029e+03 
+1.002089e+03 
+1.001956e+03 
+1.001906e+03 
+1.001953e+03 
+1.002047e+03 
+1.002030e+03 
+1.002042e+03 
+1.001915e+03 
+1.001995e+03 
+1.002072e+03 
+1.001949e+03 
+1.002058e+03 
+1.001877e+03 
+1.001995e+03 
+1.001892e+03 
+1.001969e+03 
+1.001957e+03 
+1.001878e+03 
+1.001938e+03 
+1.001818e+03 
+1.001966e+03 
+1.001983e+03 
+1.001758e+03 
+1.001854e+03 
+1.001875e+03 
+1.001790e+03 
+1.001908e+03 
+1.001891e+03 
+1.001832e+03 
+1.001930e+03 
+1.001770e+03 
+1.001836e+03 
+1.001755e+03 
+1.001874e+03 
+1.001775e+03 
+1.001813e+03 
+1.001849e+03 
+1.001691e+03 
+1.001767e+03 
+1.001604e+03 
+1.001795e+03 
+1.001569e+03 
+1.001658e+03 
+1.001739e+03 
+1.001628e+03 
+1.001788e+03 
+1.001596e+03 
+1.001630e+03 
+1.001678e+03 
+1.001697e+03 
+1.001501e+03 
+1.001561e+03 
+1.001661e+03 
+1.001542e+03 
+1.001531e+03 
+1.001471e+03 
+1.001599e+03 
+1.001542e+03 
+1.001421e+03 
+1.001555e+03 
+1.001562e+03 
+1.001501e+03 
+1.001408e+03 
+1.001533e+03 
+1.001441e+03 
+1.001609e+03 
+1.001485e+03 
+1.001526e+03 
+1.001568e+03 
+1.001541e+03 
+1.001435e+03 
+1.001563e+03 
+1.001450e+03 