# vtk DataFile Version 2.0
Unstructured Grid Example
ASCII
DATASET UNSTRUCTURED_GRID
POINTS 6462 float
-6.000000e-02 -6.000000e-02 +0.000000e+00 
-4.000000e-02 -6.000000e-02 +0.000000e+00 
-6.000000e-02 -4.000000e-02 +0.000000e+00 
-4.000000e-02 -4.000000e-02 +0.000000e+00 
-2.000000e-02 -6.000000e-02 +0.000000e+00 
+0.000000e+00 -6.000000e-02 +0.000000e+00 
-2.000000e-02 -4.000000e-02 +0.000000e+00 
+0.000000e+00 -4.000000e-02 +0.000000e+00 
+2.000000e-02 -6.000000e-02 +0.000000e+00 
+4.000000e-02 -6.000000e-02 +0.000000e+00 
+2.000000e-02 -4.000000e-02 +0.000000e+00 
+4.000000e-02 -4.000000e-02 +0.000000e+00 
+6.000000e-02 -6.000000e-02 +0.000000e+00 
+8.000000e-02 -6.000000e-02 +0.000000e+00 
+1.000000e-01 -6.000000e-02 +0.000000e+00 
+6.000000e-02 -4.000000e-02 +0.000000e+00 
+8.000000e-02 -4.000000e-02 +0.000000e+00 
+1.000000e-01 -4.000000e-02 +0.000000e+00 
+1.200000e-01 -6.000000e-02 +0.000000e+00 
+1.400000e-01 -6.000000e-02 +0.000000e+00 
+1.200000e-01 -4.000000e-02 +0.000000e+00 
+1.400000e-01 -4.000000e-02 +0.000000e+00 
+1.600000e-01 -6.000000e-02 +0.000000e+00 
+1.800000e-01 -6.000000e-02 +0.000000e+00 
+2.000000e-01 -6.000000e-02 +0.000000e+00 
+1.600000e-01 -4.000000e-02 +0.000000e+00 
+1.800000e-01 -4.000000e-02 +0.000000e+00 
+2.000000e-01 -4.000000e-02 +0.000000e+00 
+2.200000e-01 -6.000000e-02 +0.000000e+00 
+2.400000e-01 -6.000000e-02 +0.000000e+00 
+2.200000e-01 -4.000000e-02 +0.000000e+00 
+2.400000e-01 -4.000000e-02 +0.000000e+00 
+2.600000e-01 -6.000000e-02 +0.000000e+00 
+2.800000e-01 -6.000000e-02 +0.000000e+00 
+2.600000e-01 -4.000000e-02 +0.000000e+00 
+2.800000e-01 -4.000000e-02 +0.000000e+00 
+3.000000e-01 -6.000000e-02 +0.000000e+00 
+3.200000e-01 -6.000000e-02 +0.000000e+00 
+3.400000e-01 -6.000000e-02 +0.000000e+00 
+3.000000e-01 -4.000000e-02 +0.000000e+00 
+3.200000e-01 -4.000000e-02 +0.000000e+00 
+3.400000e-01 -4.000000e-02 +0.000000e+00 
+3.600000e-01 -6.000000e-02 +0.000000e+00 
+3.800000e-01 -6.000000e-02 +0.000000e+00 
+3.600000e-01 -4.000000e-02 +0.000000e+00 
+3.800000e-01 -4.000000e-02 +0.000000e+00 
+4.000000e-01 -6.000000e-02 +0.000000e+00 
+4.200000e-01 -6.000000e-02 +0.000000e+00 
+4.400000e-01 -6.000000e-02 +0.000000e+00 
+4.000000e-01 -4.000000e-02 +0.000000e+00 
+4.200000e-01 -4.000000e-02 +0.000000e+00 
+4.400000e-01 -4.000000e-02 +0.000000e+00 
+4.600000e-01 -6.000000e-02 +0.000000e+00 
+4.800000e-01 -6.000000e-02 +0.000000e+00 
+4.600000e-01 -4.000000e-02 +0.000000e+00 
+4.800000e-01 -4.000000e-02 +0.000000e+00 
+5.000000e-01 -6.000000e-02 +0.000000e+00 
+5.200000e-01 -6.000000e-02 +0.000000e+00 
+5.000000e-01 -4.000000e-02 +0.000000e+00 
+5.200000e-01 -4.000000e-02 +0.000000e+00 
+5.400000e-01 -6.000000e-02 +0.000000e+00 
+5.600000e-01 -6.000000e-02 +0.000000e+00 
+5.800000e-01 -6.000000e-02 +0.000000e+00 
+5.400000e-01 -4.000000e-02 +0.000000e+00 
+5.600000e-01 -4.000000e-02 +0.000000e+00 
+5.800000e-01 -4.000000e-02 +0.000000e+00 
+6.000000e-01 -6.000000e-02 +0.000000e+00 
+6.200000e-01 -6.000000e-02 +0.000000e+00 
+6.000000e-01 -4.000000e-02 +0.000000e+00 
+6.200000e-01 -4.000000e-02 +0.000000e+00 
+6.400000e-01 -6.000000e-02 +0.000000e+00 
+6.600000e-01 -6.000000e-02 +0.000000e+00 
+6.800000e-01 -6.000000e-02 +0.000000e+00 
+6.400000e-01 -4.000000e-02 +0.000000e+00 
+6.600000e-01 -4.000000e-02 +0.000000e+00 
+6.800000e-01 -4.000000e-02 +0.000000e+00 
+7.000000e-01 -6.000000e-02 +0.000000e+00 
+7.200000e-01 -6.000000e-02 +0.000000e+00 
+7.000000e-01 -4.000000e-02 +0.000000e+00 
+7.200000e-01 -4.000000e-02 +0.000000e+00 
+7.400000e-01 -6.000000e-02 +0.000000e+00 
+7.600000e-01 -6.000000e-02 +0.000000e+00 
+7.400000e-01 -4.000000e-02 +0.000000e+00 
+7.600000e-01 -4.000000e-02 +0.000000e+00 
+7.800000e-01 -6.000000e-02 +0.000000e+00 
+8.000000e-01 -6.000000e-02 +0.000000e+00 
+8.200000e-01 -6.000000e-02 +0.000000e+00 
+7.800000e-01 -4.000000e-02 +0.000000e+00 
+8.000000e-01 -4.000000e-02 +0.000000e+00 
+8.200000e-01 -4.000000e-02 +0.000000e+00 
+8.400000e-01 -6.000000e-02 +0.000000e+00 
+8.600000e-01 -6.000000e-02 +0.000000e+00 
+8.400000e-01 -4.000000e-02 +0.000000e+00 
+8.600000e-01 -4.000000e-02 +0.000000e+00 
+8.800000e-01 -6.000000e-02 +0.000000e+00 
+9.000000e-01 -6.000000e-02 +0.000000e+00 
+8.800000e-01 -4.000000e-02 +0.000000e+00 
+9.000000e-01 -4.000000e-02 +0.000000e+00 
+9.200000e-01 -6.000000e-02 +0.000000e+00 
+9.400000e-01 -6.000000e-02 +0.000000e+00 
+9.600000e-01 -6.000000e-02 +0.000000e+00 
+9.200000e-01 -4.000000e-02 +0.000000e+00 
+9.400000e-01 -4.000000e-02 +0.000000e+00 
+9.600000e-01 -4.000000e-02 +0.000000e+00 
+9.800000e-01 -6.000000e-02 +0.000000e+00 
+1.000000e+00 -6.000000e-02 +0.000000e+00 
+9.800000e-01 -4.000000e-02 +0.000000e+00 
+1.000000e+00 -4.000000e-02 +0.000000e+00 
+1.020000e+00 -6.000000e-02 +0.000000e+00 
+1.040000e+00 -6.000000e-02 +0.000000e+00 
+1.060000e+00 -6.000000e-02 +0.000000e+00 
+1.020000e+00 -4.000000e-02 +0.000000e+00 
+1.040000e+00 -4.000000e-02 +0.000000e+00 
+1.060000e+00 -4.000000e-02 +0.000000e+00 
+1.080000e+00 -6.000000e-02 +0.000000e+00 
+1.100000e+00 -6.000000e-02 +0.000000e+00 
+1.080000e+00 -4.000000e-02 +0.000000e+00 
+1.100000e+00 -4.000000e-02 +0.000000e+00 
+1.120000e+00 -6.000000e-02 +0.000000e+00 
+1.140000e+00 -6.000000e-02 +0.000000e+00 
+1.160000e+00 -6.000000e-02 +0.000000e+00 
+1.120000e+00 -4.000000e-02 +0.000000e+00 
+1.140000e+00 -4.000000e-02 +0.000000e+00 
+1.160000e+00 -4.000000e-02 +0.000000e+00 
+1.180000e+00 -6.000000e-02 +0.000000e+00 
+1.200000e+00 -6.000000e-02 +0.000000e+00 
+1.180000e+00 -4.000000e-02 +0.000000e+00 
+1.200000e+00 -4.000000e-02 +0.000000e+00 
+1.220000e+00 -6.000000e-02 +0.000000e+00 
+1.240000e+00 -6.000000e-02 +0.000000e+00 
+1.220000e+00 -4.000000e-02 +0.000000e+00 
+1.240000e+00 -4.000000e-02 +0.000000e+00 
+1.260000e+00 -6.000000e-02 +0.000000e+00 
+1.280000e+00 -6.000000e-02 +0.000000e+00 
+1.300000e+00 -6.000000e-02 +0.000000e+00 
+1.260000e+00 -4.000000e-02 +0.000000e+00 
+1.280000e+00 -4.000000e-02 +0.000000e+00 
+1.300000e+00 -4.000000e-02 +0.000000e+00 
+1.320000e+00 -6.000000e-02 +0.000000e+00 
+1.340000e+00 -6.000000e-02 +0.000000e+00 
+1.320000e+00 -4.000000e-02 +0.000000e+00 
+1.340000e+00 -4.000000e-02 +0.000000e+00 
+1.360000e+00 -6.000000e-02 +0.000000e+00 
+1.380000e+00 -6.000000e-02 +0.000000e+00 
+1.400000e+00 -6.000000e-02 +0.000000e+00 
+1.360000e+00 -4.000000e-02 +0.000000e+00 
+1.380000e+00 -4.000000e-02 +0.000000e+00 
+1.400000e+00 -4.000000e-02 +0.000000e+00 
+1.420000e+00 -6.000000e-02 +0.000000e+00 
+1.440000e+00 -6.000000e-02 +0.000000e+00 
+1.420000e+00 -4.000000e-02 +0.000000e+00 
+1.440000e+00 -4.000000e-02 +0.000000e+00 
+1.460000e+00 -6.000000e-02 +0.000000e+00 
+1.480000e+00 -6.000000e-02 +0.000000e+00 
+1.460000e+00 -4.000000e-02 +0.000000e+00 
+1.480000e+00 -4.000000e-02 +0.000000e+00 
+1.500000e+00 -6.000000e-02 +0.000000e+00 
+1.520000e+00 -6.000000e-02 +0.000000e+00 
+1.540000e+00 -6.000000e-02 +0.000000e+00 
+1.500000e+00 -4.000000e-02 +0.000000e+00 
+1.520000e+00 -4.000000e-02 +0.000000e+00 
+1.540000e+00 -4.000000e-02 +0.000000e+00 
+1.560000e+00 -6.000000e-02 +0.000000e+00 
+1.580000e+00 -6.000000e-02 +0.000000e+00 
+1.560000e+00 -4.000000e-02 +0.000000e+00 
+1.580000e+00 -4.000000e-02 +0.000000e+00 
+1.600000e+00 -6.000000e-02 +0.000000e+00 
+1.620000e+00 -6.000000e-02 +0.000000e+00 
+1.640000e+00 -6.000000e-02 +0.000000e+00 
+1.600000e+00 -4.000000e-02 +0.000000e+00 
+1.620000e+00 -4.000000e-02 +0.000000e+00 
+1.640000e+00 -4.000000e-02 +0.000000e+00 
+1.660000e+00 -6.000000e-02 +0.000000e+00 
+1.680000e+00 -6.000000e-02 +0.000000e+00 
+1.660000e+00 -4.000000e-02 +0.000000e+00 
+1.680000e+00 -4.000000e-02 +0.000000e+00 
+1.700000e+00 -6.000000e-02 +0.000000e+00 
+1.720000e+00 -6.000000e-02 +0.000000e+00 
+1.700000e+00 -4.000000e-02 +0.000000e+00 
+1.720000e+00 -4.000000e-02 +0.000000e+00 
+1.740000e+00 -6.000000e-02 +0.000000e+00 
+1.760000e+00 -6.000000e-02 +0.000000e+00 
+1.780000e+00 -6.000000e-02 +0.000000e+00 
+1.740000e+00 -4.000000e-02 +0.000000e+00 
+1.760000e+00 -4.000000e-02 +0.000000e+00 
+1.780000e+00 -4.000000e-02 +0.000000e+00 
+1.800000e+00 -6.000000e-02 +0.000000e+00 
+1.820000e+00 -6.000000e-02 +0.000000e+00 
+1.800000e+00 -4.000000e-02 +0.000000e+00 
+1.820000e+00 -4.000000e-02 +0.000000e+00 
+1.840000e+00 -6.000000e-02 +0.000000e+00 
+1.860000e+00 -6.000000e-02 +0.000000e+00 
+1.880000e+00 -6.000000e-02 +0.000000e+00 
+1.840000e+00 -4.000000e-02 +0.000000e+00 
+1.860000e+00 -4.000000e-02 +0.000000e+00 
+1.880000e+00 -4.000000e-02 +0.000000e+00 
+1.900000e+00 -6.000000e-02 +0.000000e+00 
+1.920000e+00 -6.000000e-02 +0.000000e+00 
+1.900000e+00 -4.000000e-02 +0.000000e+00 
+1.920000e+00 -4.000000e-02 +0.000000e+00 
+1.940000e+00 -6.000000e-02 +0.000000e+00 
+1.960000e+00 -6.000000e-02 +0.000000e+00 
+1.940000e+00 -4.000000e-02 +0.000000e+00 
+1.960000e+00 -4.000000e-02 +0.000000e+00 
+1.980000e+00 -6.000000e-02 +0.000000e+00 
+2.000000e+00 -6.000000e-02 +0.000000e+00 
+2.020000e+00 -6.000000e-02 +0.000000e+00 
+1.980000e+00 -4.000000e-02 +0.000000e+00 
+2.000000e+00 -4.000000e-02 +0.000000e+00 
+2.020000e+00 -4.000000e-02 +0.000000e+00 
+2.040000e+00 -6.000000e-02 +0.000000e+00 
+2.060000e+00 -6.000000e-02 +0.000000e+00 
+2.040000e+00 -4.000000e-02 +0.000000e+00 
+2.060000e+00 -4.000000e-02 +0.000000e+00 
+2.080000e+00 -6.000000e-02 +0.000000e+00 
+2.100000e+00 -6.000000e-02 +0.000000e+00 
+2.120000e+00 -6.000000e-02 +0.000000e+00 
+2.080000e+00 -4.000000e-02 +0.000000e+00 
+2.100000e+00 -4.000000e-02 +0.000000e+00 
+2.120000e+00 -4.000000e-02 +0.000000e+00 
+2.140000e+00 -6.000000e-02 +0.000000e+00 
+2.160000e+00 -6.000000e-02 +0.000000e+00 
+2.140000e+00 -4.000000e-02 +0.000000e+00 
+2.160000e+00 -4.000000e-02 +0.000000e+00 
+2.180000e+00 -6.000000e-02 +0.000000e+00 
+2.200000e+00 -6.000000e-02 +0.000000e+00 
+2.180000e+00 -4.000000e-02 +0.000000e+00 
+2.200000e+00 -4.000000e-02 +0.000000e+00 
+2.220000e+00 -6.000000e-02 +0.000000e+00 
+2.240000e+00 -6.000000e-02 +0.000000e+00 
[...]
POINT_DATA 6462 
SCALARS density float 1 
LOOKUP_TABLE default
+1.003221e+03 
+1.003224e+03 
+1.003216e+03 
+1.003220e+03 
+1.003231e+03 
+1.003237e+03 
+1.003228e+03 
+1.003237e+03 
+1.003239e+03 
+1.003235e+03 
+1.003239e+03 
+1.003235e+03 
+1.003227e+03 
+1.003216e+03 
+1.003202e+03 
+1.003226e+03 
+1.003216e+03 
+1.003203e+03 
+1.003186e+03 
+1.003170e+03 
+1.003187e+03 
+1.003172e+03 
+1.003153e+03 
+1.003137e+03 
+1.003124e+03 
+1.003155e+03 
+1.003138e+03 
+1.003125e+03 
+1.003116e+03 
+1.003111e+03 
+1.003119e+03 
+1.003117e+03 
+1.003109e+03 
+1.003112e+03 
+1.003108e+03 
+1.003118e+03 
+1.003118e+03 
+1.003123e+03 
+1.003125e+03 
+1.003129e+03 
+1.003135e+03 
+1.003136e+03 
+1.003126e+03 
+1.003127e+03 
+1.003133e+03 
+1.003135e+03 
+1.003129e+03 
+1.003130e+03 
+1.003132e+03 
+1.003139e+03 
+1.003138e+03 
+1.003141e+03 
+1.003131e+03 
+1.003125e+03 
+1.003144e+03 
+1.003130e+03 
+1.003119e+03 
+1.003113e+03 
+1.003126e+03 
+1.003113e+03 
+1.003109e+03 
+1.003109e+03 
+1.003110e+03 
+1.003109e+03 
+1.003107e+03 
+1.003111e+03 
+1.003109e+03 
+1.003096e+03 
+1.003121e+03 
+1.003095e+03 
+1.003078e+03 
+1.003062e+03 
+1.003043e+03 
+1.003071e+03 
+1.003057e+03 
+1.003042e+03 
+1.003021e+03 
+1.003004e+03 
+1.003004e+03 
+1.002994e+03 
+1.002991e+03 
+1.002979e+03 
+1.002978e+03 
+1.002965e+03 
+1.002967e+03 
+1.002950e+03 
+1.002935e+03 
+1.002960e+03 
+1.002937e+03 
+1.002916e+03 
+1.002925e+03 
+1.002921e+03 
+1.002903e+03 
+1.002911e+03 
+1.002917e+03 
+1.002909e+03 
+1.002906e+03 
+1.002901e+03 
+1.002895e+03 
+1.002886e+03 
+1.002872e+03 
+1.002873e+03 
+1.002872e+03 
+1.002876e+03 
+1.002848e+03 
+1.002824e+03 
+1.002830e+03 
+1.002805e+03 
+1.002802e+03 
+1.002779e+03 
+1.002757e+03 
+1.002794e+03 
+1.002766e+03 
+1.002745e+03 
+1.002733e+03 
+1.002707e+03 
+1.002724e+03 
+1.002698e+03 
+1.002679e+03 
+1.002655e+03 
+1.002633e+03 
+1.002666e+03 
+1.002648e+03 
+1.002606e+03 
+1.002626e+03 
+1.002627e+03 
+1.002621e+03 
+1.002620e+03 
+1.002626e+03 
+1.002623e+03 
+1.002631e+03 
+1.002609e+03 
+1.002625e+03 
+1.002613e+03 
+1.002583e+03 
+1.002644e+03 
+1.002643e+03 
+1.002573e+03 
+1.002566e+03 
+1.002562e+03 
+1.002560e+03 
+1.002573e+03 
+1.002561e+03 
+1.002550e+03 
+1.002524e+03 
+1.002573e+03 
+1.002586e+03 
+1.002510e+03 
+1.002505e+03 
+1.002489e+03 
+1.002526e+03 
+1.002466e+03 
+1.002490e+03 
+1.002481e+03 
+1.002515e+03 
+1.002506e+03 
+1.002454e+03 
+1.002429e+03 
+1.002396e+03 
+1.002452e+03 
+1.002442e+03 
+1.002404e+03 
+1.002368e+03 
+1.002354e+03 
+1.002353e+03 
+1.002355e+03 
+1.002347e+03 
+1.002344e+03 
+1.002342e+03 
+1.002343e+03 
+1.002344e+03 
+1.002326e+03 
+1.002349e+03 
+1.002364e+03 
+1.002333e+03 
+1.002363e+03 
+1.002374e+03 
+1.002368e+03 
+1.002380e+03 
+1.002392e+03 
+1.002340e+03 
+1.002307e+03 
+1.002264e+03 
+1.002331e+03 
+1.002336e+03 
+1.002225e+03 
+1.002238e+03 
+1.002216e+03 
+1.002227e+03 
+1.002230e+03 
+1.002173e+03 
+1.002118e+03 
+1.002086e+03 
+1.002176e+03 
+1.002079e+03 
+1.002062e+03 
+1.002072e+03 
+1.002068e+03 
+1.002037e+03 
+1.002095e+03 
+1.002045e+03 
+1.002008e+03 
+1.002048e+03 
+1.001997e+03 
+1.001978e+03 
+1.001970e+03 
+1.001961e+03 
+1.001952e+03 
+1.001973e+03 
+1.001974e+03 
+1.001945e+03 
+1.001934e+03 
+1.001947e+03 
+1.001919e+03 
+1.001923e+03 
+1.001886e+03 
+1.001828e+03 
+1.001958e+03 
+1.001894e+03 
+1.001829e+03 
+1.001780e+03 
+1.001758e+03 
+1.001737e+03 
+1.001750e+03 
+1.001742e+03 
+1.001708e+03 
+1.001748e+03 
+1.001698e+03 
+1.001684e+03 
+1.001687e+03 
+1.001702e+03 
+1.001637e+03 
+1.001661e+03 
+1.001685e+03 
+1.001721e+03 
+1.001739e+03 
+1.001701e+03 
+1.001766e+03 
+1.001725e+03 
+1.001687e+03 
+1.001650e+03 
+1.001740e+03 
+1.001672e+03 
+1.001627e+03 
+1.001628e+03 
+1.001616e+03 
+1.001632e+03 
+1.001580e+03 
+1.001632e+03 
+1.001658e+03 
+1.001615e+03 
+1.001689e+03 
+1.001651e+03 
+1.001608e+03 
+1.001556e+03 
+1.001675e+03 
+1.001617e+03 
+1.001527e+03 
+1.001526e+03 
+1.001523e+03 
+1.001498e+03 
+1.001508e+03 
+1.001532e+03 
+1.001558e+03 
+1.001564e+03 
+1.001501e+03 
+1.001549e+03 
+1.001609e+03 
+1.001535e+03 
+1.001528e+03 
+1.001455e+03 
+1.001518e+03 
+1.001509e+03 
+1.001457e+03 
+1.001516e+03 
+1.001411e+03 
+1.001406e+03 
+1.001347e+03 
+1.001289e+03 
+1.001363e+03 
+1.001325e+03 
+1.001229e+03 
+1.001265e+03 
+1.001308e+03 
+1.001130e+03 
+1.001321e+03 
+1.001321e+03 
+1.001297e+03 
+1.001272e+03 
+1.001328e+03 
+1.001260e+03 
+1.001240e+03 
+1.001259e+03 
+1.001252e+03 
+1.001230e+03 
+1.001277e+03 
+1.001230e+03 
+1.001209e+03 
+1.001223e+03 
+1.001166e+03 
+1.001209e+03 
+1.001184e+03 
+1.001145e+03 
+1.001263e+03 
+1.001204e+03 
+1.001148e+03 
+1.001109e+03 
+1.001065e+03 
+1.001106e+03 
+1.001069e+03 
+1.001019e+03 
+1.000971e+03 
+1.001002e+03 
+1.000996e+03 
+1.000872e+03 
+1.000939e+03 
+1.001063e+03 
+1.001122e+03 
+1.001040e+03 
+1.001097e+03 
+1.001161e+03 
+1.001161e+03 
+1.001208e+03 
+1.001118e+03 
+1.001168e+03 
+1.001205e+03 
+1.001211e+03 
+1.001099e+03 
+1.001250e+03 
+1.001216e+03 
+1.001202e+03 
+1.001213e+03 
+1.001127e+03 
+1.001230e+03 
+1.001199e+03 
+1.001151e+03 
+1.001081e+03 
+1.001215e+03 
+1.001129e+03 
+1.001068e+03 
+1.001020e+03 
+1.000998e+03 
+1.000964e+03 
+1.000922e+03 
+1.001012e+03 
+1.000970e+03 
+1.001129e+03 
+1.000988e+03 
+1.000927e+03 
+1.000946e+03 
+1.000981e+03 
+1.000901e+03 
+1.001018e+03 
+1.001042e+03 
+1.001020e+03 
+1.001037e+03 
+1.001153e+03 
+1.001077e+03 
+1.001062e+03 
+1.001045e+03 
+1.001057e+03 
+1.001234e+03 
+1.001106e+03 
+1.001064e+03 
+1.001115e+03 
+1.001144e+03 
+1.001249e+03 
+1.001209e+03 
+1.001159e+03 
+1.001166e+03 
+1.001202e+03 
+1.001260e+03 
+1.001131e+03 
+1.001097e+03 
+1.001090e+03 
+1.001175e+03 
+1.001081e+03 
+1.001040e+03 
+1.001143e+03 
+1.001184e+03 
+1.001152e+03 
+1.001228e+03 
+1.001174e+03 
+1.001164e+03 
+1.001100e+03 
+1.001129e+03 
+1.001210e+03 
+1.000994e+03 
+1.001106e+03 
+1.001170e+03 
+1.001000e+03 
+1.001192e+03 
+1.001202e+03 
+1.001202e+03 
+1.001254e+03 
+1.001106e+03 
+1.001267e+03 
+1.001330e+03 
+1.001339e+03 
+1.001289e+03 
+1.001410e+03 
+1.001319e+03 
+1.001351e+03 
+1.001305e+03 
+1.001433e+03 
+1.001285e+03 
+1.001296e+03 
+1.001307e+03 
+1.001211e+03 
+1.001202e+03 
+1.001491e+03 
+1.001271e+03 
+1.001080e+03 
+1.001044e+03 
+1.000988e+03 
+1.001055e+03 
+1.001020e+03 
+1.000974e+03 
+1.001084e+03 
+1.000900e+03 
+1.001001e+03 
+1.001070e+03 
+1.001143e+03 
+1.000963e+03 
+1.001094e+03 
+1.001181e+03 
+1.001212e+03 
+1.001273e+03 
+1.001264e+03 
+1.001374e+03 
+1.001308e+03 
+1.001347e+03 
+1.001360e+03 
+1.001516e+03 
+1.001312e+03 
+1.001205e+03 
+1.001137e+03 
+1.001464e+03 
+1.001221e+03 
+1.001000e+03 
+1.001222e+03 
+1.001247e+03 
+1.001345e+03 
+1.001520e+03 
+1.001150e+03 
+1.001102e+03 
+1.001041e+03 
+1.001185e+03 
+1.001280e+03 
+1.001176e+03 
+1.000958e+03 
+1.000920e+03 
+1.000987e+03 
+1.001020e+03 
+1.000860e+03 
+1.000765e+03 
+1.000679e+03 
+1.000935e+03 
+1.000769e+03 
+1.000663e+03 
+1.000596e+03 
+1.000599e+03 
+1.000501e+03 
+1.000471e+03 
+1.000649e+03 
+1.000744e+03 
+1.000528e+03 
+1.000680e+03 
+1.000790e+03 
+1.000864e+03 
+1.000958e+03 
+1.000654e+03 
+1.000714e+03 
+1.000944e+03 
+1.001016e+03 
+1.001128e+03 
+1.000863e+03 
+1.000961e+03 
+1.001260e+03 
+1.001245e+03 
+1.001365e+03 
+1.001213e+03 
+1.001173e+03 
+1.001284e+03 
+1.001499e+03 
+1.000892e+03 
+1.001084e+03 
+1.001531e+03 
+1.001604e+03 
+1.001486e+03 
+1.001766e+03 
+1.001527e+03 
+1.001255e+03 
+1.001049e+03 
+1.000940e+03 
+1.001235e+03 
+1.000984e+03 
+1.000763e+03 
+1.001052e+03 
+1.001186e+03 
+1.001123e+03 
+1.001319e+03 
+1.001248e+03 
+1.001409e+03 
+1.001596e+03 
+1.001229e+03 
+1.001438e+03 
+1.001621e+03 
+1.001852e+03 
+1.002061e+03 
+1.002021e+03 
+1.002259e+03 
+1.002164e+03 
+1.002248e+03 
+1.002247e+03 
+1.002253e+03 
+1.002336e+03 
+1.002362e+03 
+1.002299e+03 
+1.002394e+03 
+1.002350e+03 
+1.002314e+03 
+1.002168e+03 
+1.002190e+03 
+1.001897e+03 
+1.001705e+03 
+1.002508e+03 
+1.002951e+03 
+1.003326e+03 
+1.002137e+03 
+1.002755e+03 
+1.003185e+03 
+1.003583e+03 
+1.003782e+03 
+1.003395e+03 
+1.003565e+03 
+1.003969e+03 
+1.004138e+03 
+1.003772e+03 
+1.003944e+03 
+1.004288e+03 
+1.004414e+03 
+1.004507e+03 
+1.004098e+03 
+1.004258e+03 
+1.004372e+03 
+1.004570e+03 
+1.004614e+03 
+1.004458e+03 
+1.004515e+03 
+1.003204e+03 
+1.003209e+03 
+1.003184e+03 
+1.003187e+03 
+1.003220e+03 
+1.003240e+03 
+1.003195e+03 
+1.003242e+03 
+1.003243e+03 
+1.003235e+03 
+1.003251e+03 
+1.003235e+03 
+1.003225e+03 
+1.003219e+03 
+1.003205e+03 
+1.003230e+03 
+1.003214e+03 
+1.003187e+03 
+1.003178e+03 
+1.003190e+03 
+1.003169e+03 
+1.003160e+03 
+1.003158e+03 
+1.003131e+03 
+1.003127e+03 
+1.003124e+03 
+1.003128e+03 
+1.003125e+03 
+1.003146e+03 
+1.003133e+03 
+1.003155e+03 
+1.003158e+03 
+1.003111e+03 
+1.003140e+03 
+1.003107e+03 
+1.003121e+03 
+1.003143e+03 
+1.003164e+03 
+1.003141e+03 
+1.003180e+03 
+1.003135e+03 
+1.003169e+03 
+1.003127e+03 
+1.003166e+03 
+1.003120e+03 
+1.003142e+03 
+1.003160e+03 
+1.003137e+03 
+1.003151e+03 
+1.003164e+03 
+1.003197e+03 
+1.003113e+03 
+1.003133e+03 
+1.003110e+03 
+1.003097e+03 
+1.003137e+03 
+1.003122e+03 
+1.003052e+03 
+1.003083e+03 
+1.003106e+03 
+1.003100e+03 
+1.003119e+03 
+1.003070e+03 
+1.003167e+03 
+1.003073e+03 
+1.003041e+03 
+1.003016e+03 
+1.003011e+03 
+1.003049e+03 
+1.003020e+03 
+1.003099e+03 
+1.002989e+03 
+1.002953e+03 
+1.002970e+03 
+1.002958e+03 
+1.002922e+03 
+1.002955e+03 
+1.002917e+03 
+1.002921e+03 
+1.002899e+03 
+1.002894e+03 
+1.002971e+03 
+1.002881e+03 
+1.002901e+03 
+1.002887e+03 
+1.002865e+03 
+1.002908e+03 
+1.002811e+03 
+1.002822e+03 
+1.002821e+03 
+1.002914e+03 
+1.002831e+03 
+1.002839e+03 
+1.002820e+03 
+1.002870e+03 
+1.002869e+03 
+1.002779e+03 
+1.002758e+03 
+1.002748e+03 
+1.002827e+03 
+1.002736e+03 
+1.002656e+03 
+1.002775e+03 
+1.002706e+03 
+1.002736e+03 
+1.002706e+03 
+1.002639e+03 
+1.002680e+03 
+1.002712e+03 
+1.002631e+03 
+1.002643e+03 
+1.002577e+03 
+1.002758e+03 
+1.002506e+03 
+1.002655e+03 
+1.002584e+03 
+1.002608e+03 
+1.002610e+03 
+1.002599e+03 
+1.002555e+03 
+1.002689e+03 
+1.002501e+03 
+1.002626e+03 
+1.002528e+03 
+1.002724e+03 
+1.002745e+03 
+1.002461e+03 
+1.002587e+03 
+1.002536e+03 
+1.002609e+03 
+1.002578e+03 
+1.002619e+03 
+1.002522e+03 
+1.002527e+03 
+1.002562e+03 
+1.002760e+03 
+1.002285e+03 
+1.002494e+03 
+1.002435e+03 
+1.002739e+03 
+1.002327e+03 
+1.002535e+03 
+1.002474e+03 
+1.002583e+03 
+1.002580e+03 
+1.002399e+03 
+1.002442e+03 
+1.002426e+03 
+1.002309e+03 
+1.002628e+03 
+1.002353e+03 
+1.002345e+03 
+1.002374e+03 
+1.002330e+03 
+1.002410e+03 
+1.002322e+03 
+1.002407e+03 
+1.002359e+03 
+1.002291e+03 
+1.002382e+03 
+1.002285e+03 
+1.002401e+03 
+1.002350e+03 
+1.002294e+03 
+1.002379e+03 
+1.002315e+03 
+1.002356e+03 
+1.002325e+03 
+1.002591e+03 
+1.002185e+03 
+1.002271e+03 
+1.002207e+03 
+1.002437e+03 
+1.002079e+03 
+1.002319e+03 
+1.002131e+03 
+1.002256e+03 
+1.002216e+03 
+1.002070e+03 
+1.002113e+03 
+1.002272e+03 
+1.001804e+03 
+1.002189e+03 
+1.002135e+03 
+1.002038e+03 
+1.001971e+03 
+1.002109e+03 
+1.002076e+03 
+1.001965e+03 
+1.001986e+03 
+1.002026e+03 
+1.001916e+03 
+1.001942e+03 
+1.001802e+03 
+1.002087e+03 
+1.001947e+03 
+1.001986e+03 
+1.001989e+03 
+1.001987e+03 
+1.001857e+03 
+1.001952e+03 
+1.001886e+03 
+1.002088e+03 
+1.001912e+03 
+1.001767e+03 
+1.001703e+03 
+1.001704e+03 
+1.001623e+03 
+1.001594e+03 
+1.001715e+03 
+1.001699e+03 
+1.001994e+03 
+1.001524e+03 
+1.002010e+03 
+1.001552e+03 
+1.001415e+03 
+1.001699e+03 
+1.001727e+03 
+1.001617e+03 
+1.001974e+03 
+1.001588e+03 
+1.001909e+03 
+1.001474e+03 
+1.001565e+03 
+1.001675e+03 
+1.001704e+03 
+1.001464e+03 
+1.001685e+03 
+1.001373e+03 
+1.001708e+03 
+1.001735e+03 
+1.001515e+03 
+1.001652e+03 
+1.001520e+03 
+1.001821e+03 
+1.001426e+03 
+1.001383e+03 
+1.001535e+03 
+1.001676e+03 
+1.001605e+03 
+1.001401e+03 
+1.001345e+03 
+1.001445e+03 
+1.001347e+03 
+1.001659e+03 
+1.001754e+03 
+1.001268e+03 
+1.001372e+03 
+1.001614e+03 
+1.001780e+03 
+1.001516e+03 
+1.000968e+03 
+1.001692e+03 
+1.001566e+03 
+1.001201e+03 
+1.001616e+03 
+1.001097e+03 
+1.001214e+03 
+1.001132e+03 
+1.001284e+03 
+1.001508e+03 
+1.001137e+03 
+1.001334e+03 
+1.001175e+03 
+1.000595e+03 
+1.001690e+03 
+1.001398e+03 
+1.001281e+03 
+1.001055e+03 
+1.001223e+03 
+1.001132e+03 
+1.001309e+03 
+1.001063e+03 
+1.001217e+03 
+1.001164e+03 
+1.001268e+03 
+1.001366e+03 
+1.001082e+03 
+1.001268e+03 
+1.001000e+03 
+1.001138e+03 
+1.000993e+03 
+1.001466e+03 
+1.001142e+03 
+1.001108e+03 
+1.001245e+03 
+1.001415e+03 
+1.001334e+03 
+1.000799e+03 
+1.000678e+03 
+1.001485e+03 
+1.001694e+03 
+9.999318e+02 
+1.001020e+03 
+1.001266e+03 
+1.000550e+03 
+1.001202e+03 
+1.000958e+03 
+1.001321e+03 
+1.000634e+03 
+1.001165e+03 
+1.001119e+03 
+1.001138e+03 
+1.001097e+03 
+1.000916e+03 
+1.001400e+03 
+1.001178e+03 
+1.001019e+03 
+1.000975e+03 
+1.001350e+03 
+1.001019e+03 
+1.000651e+03 
+1.000979e+03 
+1.001280e+03 
+1.000835e+03 
+1.001076e+03 
+1.000957e+03 
+1.001097e+03 
+1.000487e+03 
+1.001118e+03 
+1.000749e+03 
+1.001656e+03 
+1.000947e+03 
+1.001327e+03 
+1.001043e+03 
+1.000510e+03 
+1.001507e+03 
+1.000941e+03 
+1.000908e+03 
+1.001311e+03 
+1.001796e+03 
+1.000686e+03 
+1.001290e+03 
+1.001059e+03 
+1.001727e+03 
+1.001941e+03 
+1.001005e+03 
+1.001033e+03 
+1.001400e+03 
+1.001106e+03 
+1.001737e+03 
+1.001289e+03 
+1.001192e+03 
+1.001295e+03 
+1.001571e+03 
+1.001488e+03 
+1.000950e+03 
+1.001267e+03 
+1.000695e+03 
+1.001503e+03 
+1.000506e+03 
+1.001458e+03 
+1.000750e+03 
+1.001165e+03 
+1.001865e+03 
+1.000827e+03 
+1.000294e+03 
+1.002434e+03 
+9.998865e+02 
+1.001392e+03 
+1.001601e+03 
+1.000134e+03 
+1.000655e+03 
+1.001371e+03 
+1.001151e+03 
+1.001826e+03 
+1.000424e+03 
+1.001187e+03 
+1.001062e+03 
+1.001136e+03 
+1.002057e+03 
+1.000474e+03 
+1.001381e+03 
+1.002747e+03 
+1.002456e+03 
+1.000688e+03 
+1.000085e+03 
+1.001022e+03 
+1.001060e+03 
+1.002206e+03 
+1.001544e+03 
+1.001315e+03 
+1.000331e+03 
+1.001152e+03 
+1.000422e+03 
+1.001006e+03 
+1.001612e+03 
+1.000019e+03 
+1.000849e+03 
+1.000610e+03 
+1.001148e+03 
+1.001162e+03 
+1.001262e+03 
+1.001219e+03 
+1.000753e+03 
+1.001034e+03 
+1.001154e+03 
+1.002119e+03 
+1.001219e+03 
+1.001703e+03 
+1.000997e+03 
+1.001878e+03 
+1.001734e+03 
+1.001967e+03 
+9.993073e+02 
+1.003390e+03 
+1.003039e+03 
+1.002333e+03 
+1.002962e+03 
+1.001819e+03 
+1.000242e+03 
+9.999116e+02 
+1.001940e+03 
+1.001874e+03 
+1.001542e+03 
+1.000381e+03 
+1.000279e+03 
+1.001605e+03 
+1.000821e+03 
+1.000278e+03 
+1.001260e+03 
+1.000259e+03 
+1.001419e+03 
+1.000195e+03 
+1.000113e+03 
+9.994117e+02 
+1.001001e+03 
+1.000606e+03 
+9.994238e+02 
+1.001483e+03 
+1.000232e+03 
+9.999198e+02 
+1.000121e+03 
+1.001533e+03 
+1.000563e+03 
+1.000971e+03 
+9.999191e+02 
+1.000094e+03 
+1.000344e+03 
+1.000186e+03 
+1.002057e+03 
+1.001774e+03 
+1.000960e+03 
+9.992009e+02 
+1.000570e+03 
+1.001767e+03 
+1.000131e+03 
+1.002681e+03 
+1.001644e+03 
+1.000437e+03 
+1.002170e+03 
+9.987802e+02 
+1.000155e+03 
+9.999671e+02 
+1.001457e+03 
+1.003096e+03 
+1.000329e+03 
+1.000795e+03 
+9.991579e+02 
+1.003118e+03 
+1.000609e+03 
+1.000949e+03 
+1.001879e+03 
+1.002397e+03 
+1.003212e+03 
+1.002488e+03 
+1.002216e+03 
+1.002023e+03 
+1.000826e+03 
+1.002169e+03 
+1.002874e+03 
+1.002705e+03 
+1.002293e+03 
+1.002950e+03 
+1.002336e+03 
+1.003405e+03 
+1.001279e+03 
+9.998626e+02 
+1.003537e+03 
+1.001691e+03 
+1.001500e+03 
+1.002691e+03 
+1.003208e+03 
+1.001914e+03 
+1.002688e+03 
+1.002962e+03 
+1.002991e+03 
+1.003489e+03 
+1.003496e+03 
+1.003011e+03 
+1.003688e+03 
+1.003920e+03 
+1.004086e+03 
+1.003451e+03 
+1.002967e+03 
+1.003022e+03 
+1.004232e+03 
+1.004336e+03 
+1.003919e+03 
+1.004097e+03 
+1.003155e+03 
+1.003157e+03 
+1.003115e+03 
+1.003121e+03 
+1.003207e+03 
+1.003160e+03 
+1.003137e+03 
+1.003147e+03 
+1.003177e+03 
+1.003217e+03 
+1.003117e+03 
+1.003168e+03 
+1.003205e+03 
+1.003180e+03 
+1.003133e+03 
+1.003103e+03 
+1.003160e+03 
+1.003004e+03 
+1.003066e+03 
+1.003130e+03 
+1.003081e+03 
+1.003119e+03 
+1.003051e+03 
+1.002953e+03 
+1.002999e+03 
+1.003087e+03 
+1.003110e+03 
+1.003041e+03 
+1.003041e+03 
+1.002981e+03 
+1.002968e+03 
+1.003028e+03 
+1.003073e+03 
+1.002972e+03 
+1.003083e+03 
+1.003014e+03 
+1.002924e+03 
+1.002990e+03 
+1.003056e+03 
+1.003028e+03 
+1.002953e+03 
+1.002951e+03 
+1.003089e+03 
+1.003067e+03 
+1.003086e+03 
+1.003034e+03 
+1.002945e+03 
+1.002866e+03 
+1.003067e+03 
+1.002971e+03 
+1.003089e+03 
+1.003044e+03 
+1.002949e+03 
+1.002993e+03 
+1.003073e+03 
+1.002901e+03 
+1.003000e+03 
+1.003064e+03 
+1.002919e+03 
+1.003021e+03 
+1.003088e+03 
+1.002919e+03 
+1.003012e+03 
+1.003096e+03 
+1.003026e+03 
+1.002937e+03 
+1.003076e+03 
+1.002941e+03 
+1.002977e+03 
+1.003055e+03 
+1.002866e+03 
+1.002847e+03 
+1.002978e+03 
+1.003047e+03 
+1.002875e+03 
+1.002992e+03 
+1.003044e+03 
+1.002919e+03 
+1.003015e+03 
+1.002946e+03 
+1.003013e+03 
+1.002825e+03 
+1.002859e+03 
+1.002913e+03 
+1.002980e+03 
+1.002823e+03 
+1.002904e+03 
+1.002969e+03 
+1.002793e+03 
+1.002893e+03 
+1.002968e+03 
+1.002820e+03 
+1.002890e+03 
+1.002826e+03 
+1.002918e+03 
+1.002848e+03 
+1.002907e+03 
+1.002750e+03 
+1.002864e+03 
+1.002906e+03 
+1.002709e+03 
+1.002756e+03 
+1.002834e+03 
+1.002799e+03 
+1.002828e+03 
+1.002667e+03 
+1.002774e+03 
+1.002862e+03 
+1.002701e+03 
+1.002793e+03 
+1.002688e+03 
+1.002833e+03 
+1.002766e+03 
+1.002773e+03 
+1.002696e+03 
+1.002717e+03 
+1.002758e+03 
+1.002607e+03 
+1.002664e+03 
+1.002711e+03 
+1.002790e+03 
+1.002649e+03 
+1.002697e+03 
+1.002752e+03 
+1.002620e+03 
+1.002635e+03 
+1.002704e+03 
+1.002592e+03 
+1.002661e+03 
+1.002713e+03 
+1.002516e+03 
+1.002615e+03 
+1.002620e+03 
+1.002662e+03 
+1.002553e+03 
+1.002618e+03 
+1.002512e+03 
+1.002569e+03 
+1.002622e+03 
+1.002529e+03 
+1.002585e+03 
+1.002563e+03 
+1.002581e+03 
+1.002577e+03 
+1.002555e+03 
+1.002630e+03 
+1.002410e+03 
+1.002580e+03 
+1.002421e+03 
+1.002569e+03 
+1.002493e+03 
+1.002549e+03 
+1.002364e+03 
+1.002491e+03 
+1.002547e+03 
+1.002407e+03 
+1.002517e+03 
+1.002592e+03 
+1.002432e+03 
+1.002422e+03 
+1.002511e+03 
+1.002448e+03 
+1.002521e+03 
+1.002443e+03 
+1.002521e+03 
+1.002355e+03 
+1.002398e+03 
+1.002520e+03 
+1.002341e+03 
+1.002387e+03 
+1.002520e+03 
+1.002350e+03 
+1.002437e+03 
+1.002453e+03 
+1.002340e+03 
+1.002354e+03 
+1.002487e+03 
+1.002291e+03 
+1.002345e+03 
+1.002467e+03 
+1.002306e+03 
+1.002321e+03 
+1.002322e+03 
+1.002397e+03 
+1.002386e+03 
+1.002419e+03 
+1.002216e+03 
+1.002376e+03 
+1.002347e+03 
+1.002227e+03 
+1.002378e+03 
+1.002143e+03 
+1.002357e+03 
+1.002259e+03 
+1.002355e+03 
+1.002215e+03 
+1.002339e+03 
+1.002269e+03 
+1.002133e+03 
+1.002252e+03 
+1.002272e+03 
+1.002276e+03 
+1.002142e+03 
+1.002193e+03 
+1.002290e+03 
+1.002069e+03 
+1.002216e+03 
+1.002297e+03 
+1.002234e+03 
+1.002222e+03 
+1.002141e+03 
+1.002236e+03 
+1.002035e+03 
+1.002167e+03 
+1.002368e+03 
+1.002062e+03 
+1.002169e+03 
+1.002093e+03 
+1.002192e+03 
+1.002108e+03 
+1.001990e+03 
+1.001989e+03 
+1.002054e+03 
+1.001956e+03 
+1.002143e+03 
+1.002133e+03 
+1.001906e+03 
+1.001993e+03 
+1.001995e+03 
+1.002037e+03 
+1.001935e+03 
+1.001945e+03 
+1.001969e+03 
+1.001873e+03 
+1.001911e+03 
+1.001899e+03 
+1.001995e+03 
+1.001931e+03 
+1.001784e+03 
+1.001948e+03 
+1.001857e+03 
+1.001770e+03 
+1.001852e+03 
+1.001902e+03 
+1.001747e+03 
+1.001815e+03 
+1.001945e+03 
+1.001794e+03 
+1.001791e+03 
+1.001866e+03 
+1.001696e+03 
+1.001948e+03 
+1.001659e+03 
+1.001735e+03 
+1.001783e+03 
+1.001731e+03 
+1.001793e+03 
+1.001867e+03 
+1.001631e+03 
+1.001756e+03 
+1.001619e+03 
+1.001662e+03 
+1.001568e+03 
+1.001756e+03 
+1.001582e+03 
+1.001742e+03 
+1.001545e+03 
+1.001544e+03 
+1.001767e+03 
+1.001488e+03 
+1.001512e+03 
+1.001483e+03 
+1.001635e+03 
+1.001656e+03 
+1.001520e+03 
+1.001611e+03 
+1.001705e+03 
+1.001382e+03 
+1.001513e+03 