# vtk DataFile Version 2.0
Unstructured Grid Example
ASCII
DATASET UNSTRUCTURED_GRID
POINTS 6462 float
-6.000000e-02 -6.000000e-02 +0.000000e+00 
-4.000000e-02 -6.000000e-02 +0.000000e+00 
-6.000000e-02 -4.000000e-02 +0.000000e+00 
-4.000000e-02 -4.000000e-02 +0.000000e+00 
-2.000000e-02 -6.000000e-02 +0.000000e+00 
+0.000000e+00 -6.000000e-02 +0.000000e+00 
-2.000000e-02 -4.000000e-02 +0.000000e+00 
+0.000000e+00 -4.000000e-02 +0.000000e+00 
+2.000000e-02 -6.000000e-02 +0.000000e+00 
+4.000000e-02 -6.000000e-02 +0.000000e+00 
+2.000000e-02 -4.000000e-02 +0.000000e+00 
+4.000000e-02 -4.000000e-02 +0.000000e+00 
+6.000000e-02 -6.000000e-02 +0.000000e+00 
+8.000000e-02 -6.000000e-02 +0.000000e+00 
+1.000000e-01 -6.000000e-02 +0.000000e+00 
+6.000000e-02 -4.000000e-02 +0.000000e+00 
+8.000000e-02 -4.000000e-02 +0.000000e+00 
+1.000000e-01 -4.000000e-02 +0.000000e+00 
+1.200000e-01 -6.000000e-02 +0.000000e+00 
+1.400000e-01 -6.000000e-02 +0.000000e+00 
+1.200000e-01 -4.000000e-02 +0.000000e+00 
+1.400000e-01 -4.000000e-02 +0.000000e+00 
+1.600000e-01 -6.000000e-02 +0.000000e+00 
+1.800000e-01 -6.000000e-02 +0.000000e+00 
+2.000000e-01 -6.000000e-02 +0.000000e+00 
+1.600000e-01 -4.000000e-02 +0.000000e+00 
+1.800000e-01 -4.000000e-02 +0.000000e+00 
+2.000000e-01 -4.000000e-02 +0.000000e+00 
+2.200000e-01 -6.000000e-02 +0.000000e+00 
+2.400000e-01 -6.000000e-02 +0.000000e+00 
+2.200000e-01 -4.000000e-02 +0.000000e+00 
+2.400000e-01 -4.000000e-02 +0.000000e+00 
+2.600000e-01 -6.000000e-02 +0.000000e+00 
+2.800000e-01 -6.000000e-02 +0.000000e+00 
+2.600000e-01 -4.000000e-02 +0.000000e+00 
+2.800000e-01 -4.000000e-02 +0.000000e+00 
+3.000000e-01 -6.000000e-02 +0.000000e+00 
+3.200000e-01 -6.000000e-02 +0.000000e+00 
+3.400000e-01 -6.000000e-02 +0.000000e+00 
+3.000000e-01 -4.000000e-02 +0.000000e+00 
+3.200000e-01 -4.000000e-02 +0.000000e+00 
+3.400000e-01 -4.000000e-02 +0.000000e+00 
+3.600000e-01 -6.000000e-02 +0.000000e+00 
+3.800000e-01 -6.000000e-02 +0.000000e+00 
+3.600000e-01 -4.000000e-02 +0.000000e+00 
+3.800000e-01 -4.000000e-02 +0.000000e+00 
+4.000000e-01 -6.000000e-02 +0.000000e+00 
+4.200000e-01 -6.000000e-02 +0.000000e+00 
+4.400000e-01 -6.000000e-02 +0.000000e+00 
+4.000000e-01 -4.000000e-02 +0.000000e+00 
+4.200000e-01 -4.000000e-02 +0.000000e+00 
+4.400000e-01 -4.000000e-02 +0.000000e+00 
+4.600000e-01 -6.000000e-02 +0.000000e+00 
+4.800000e-01 -6.000000e-02 +0.000000e+00 
+4.600000e-01 -4.000000e-02 +0.000000e+00 
+4.800000e-01 -4.000000e-02 +0.000000e+00 
+5.000000e-01 -6.000000e-02 +0.000000e+00 
+5.200000e-01 -6.000000e-02 +0.000000e+00 
+5.000000e-01 -4.000000e-02 +0.000000e+00 
+5.200000e-01 -4.000000e-02 +0.000000e+00 
+5.400000e-01 -6.000000e-02 +0.000000e+00 
+5.600000e-01 -6.000000e-02 +0.000000e+00 
+5.800000e-01 -6.000000e-02 +0.000000e+00 
+5.400000e-01 -4.000000e-02 +0.000000e+00 
+5.600000e-01 -4.000000e-02 +0.000000e+00 
+5.800000e-01 -4.000000e-02 +0.000000e+00 
+6.000000e-01 -6.000000e-02 +0.000000e+00 
+6.200000e-01 -6.000000e-02 +0.000000e+00 
+6.000000e-01 -4.000000e-02 +0.000000e+00 
+6.200000e-01 -4.000000e-02 +0.000000e+00 
+6.400000e-01 -6.000000e-02 +0.000000e+00 
+6.600000e-01 -6.000000e-02 +0.000000e+00 
+6.800000e-01 -6.000000e-02 +0.000000e+00 
+6.400000e-01 -4.000000e-02 +0.000000e+00 
+6.600000e-01 -4.000000e-02 +0.000000e+00 
+6.800000e-01 -4.000000e-02 +0.000000e+00 
+7.000000e-01 -6.000000e-02 +0.000000e+00 
+7.200000e-01 -6.000000e-02 +0.000000e+00 
+7.000000e-01 -4.000000e-02 +0.000000e+00 
+7.200000e-01 -4.000000e-02 +0.000000e+00 
+7.400000e-01 -6.000000e-02 +0.000000e+00 
+7.600000e-01 -6.000000e-02 +0.000000e+00 
+7.400000e-01 -4.000000e-02 +0.000000e+00 
+7.600000e-01 -4.000000e-02 +0.000000e+00 
+7.800000e-01 -6.000000e-02 +0.000000e+00 
+8.000000e-01 -6.000000e-02 +0.000000e+00 
+8.200000e-01 -6.000000e-02 +0.000000e+00 
+7.800000e-01 -4.000000e-02 +0.000000e+00 
+8.000000e-01 -4.000000e-02 +0.000000e+00 
+8.200000e-01 -4.000000e-02 +0.000000e+00 
+8.400000e-01 -6.000000e-02 +0.000000e+00 
+8.600000e-01 -6.000000e-02 +0.000000e+00 
+8.400000e-01 -4.000000e-02 +0.000000e+00 
+8.600000e-01 -4.000000e-02 +0.000000e+00 
+8.800000e-01 -6.000000e-02 +0.000000e+00 
+9.000000e-01 -6.000000e-02 +0.000000e+00 
+8.800000e-01 -4.000000e-02 +0.000000e+00 
+9.000000e-01 -4.000000e-02 +0.000000e+00 
+9.200000e-01 -6.000000e-02 +0.000000e+00 
+9.400000e-01 -6.000000e-02 +0.000000e+00 
+9.600000e-01 -6.000000e-02 +0.000000e+00 
+9.200000e-01 -4.000000e-02 +0.000000e+00 
+9.400000e-01 -4.000000e-02 +0.000000e+00 
+9.600000e-01 -4.000000e-02 +0.000000e+00 
+9.800000e-01 -6.000000e-02 +0.000000e+00 
+1.000000e+00 -6.000000e-02 +0.000000e+00 
+9.800000e-01 -4.000000e-02 +0.000000e+00 
+1.000000e+00 -4.000000e-02 +0.000000e+00 
+1.020000e+00 -6.000000e-02 +0.000000e+00 
+1.040000e+00 -6.000000e-02 +0.000000e+00 
+1.060000e+00 -6.000000e-02 +0.000000e+00 
+1.020000e+00 -4.000000e-02 +0.000000e+00 
+1.040000e+00 -4.000000e-02 +0.000000e+00 
+1.060000e+00 -4.000000e-02 +0.000000e+00 
+1.080000e+00 -6.000000e-02 +0.000000e+00 
+1.100000e+00 -6.000000e-02 +0.000000e+00 
+1.080000e+00 -4.000000e-02 +0.000000e+00 
+1.100000e+00 -4.000000e-02 +0.000000e+00 
+1.120000e+00 -6.000000e-02 +0.000000e+00 
+1.140000e+00 -6.000000e-02 +0.000000e+00 
+1.160000e+00 -6.000000e-02 +0.000000e+00 
+1.120000e+00 -4.000000e-02 +0.000000e+00 
+1.140000e+00 -4.000000e-02 +0.000000e+00 
+1.160000e+00 -4.000000e-02 +0.000000e+00 
+1.180000e+00 -6.000000e-02 +0.000000e+00 
+1.200000e+00 -6.000000e-02 +0.000000e+00 
+1.180000e+00 -4.000000e-02 +0.000000e+00 
+1.200000e+00 -4.000000e-02 +0.000000e+00 
+1.220000e+00 -6.000000e-02 +0.000000e+00 
+1.240000e+00 -6.000000e-02 +0.000000e+00 
+1.220000e+00 -4.000000e-02 +0.000000e+00 
+1.240000e+00 -4.000000e-02 +0.000000e+00 
+1.260000e+00 -6.000000e-02 +0.000000e+00 
+1.280000e+00 -6.000000e-02 +0.000000e+00 
+1.300000e+00 -6.000000e-02 +0.000000e+00 
+1.260000e+00 -4.000000e-02 +0.000000e+00 
+1.280000e+00 -4.000000e-02 +0.000000e+00 
+1.300000e+00 -4.000000e-02 +0.000000e+00 
+1.320000e+00 -6.000000e-02 +0.000000e+00 
+1.340000e+00 -6.000000e-02 +0.000000e+00 
+1.320000e+00 -4.000000e-02 +0.000000e+00 
+1.340000e+00 -4.000000e-02 +0.000000e+00 
+1.360000e+00 -6.000000e-02 +0.000000e+00 
+1.380000e+00 -6.000000e-02 +0.000000e+00 
+1.400000e+00 -6.000000e-02 +0.000000e+00 
+1.360000e+00 -4.000000e-02 +0.000000e+00 
+1.380000e+00 -4.000000e-02 +0.000000e+00 
+1.400000e+00 -4.000000e-02 +0.000000e+00 
+1.420000e+00 -6.000000e-02 +0.000000e+00 
+1.440000e+00 -6.000000e-02 +0.000000e+00 
+1.420000e+00 -4.000000e-02 +0.000000e+00 
+1.440000e+00 -4.000000e-02 +0.000000e+00 
+1.460000e+00 -6.000000e-02 +0.000000e+00 
+1.480000e+00 -6.000000e-02 +0.000000e+00 
+1.460000e+00 -4.000000e-02 +0.000000e+00 
+1.480000e+00 -4.000000e-02 +0.000000e+00 
+1.500000e+00 -6.000000e-02 +0.000000e+00 
+1.520000e+00 -6.000000e-02 +0.000000e+00 
+1.540000e+00 -6.000000e-02 +0.000000e+00 
+1.500000e+00 -4.000000e-02 +0.000000e+00 
+1.520000e+00 -4.000000e-02 +0.000000e+00 
+1.540000e+00 -4.000000e-02 +0.000000e+00 
+1.560000e+00 -6.000000e-02 +0.000000e+00 
+1.580000e+00 -6.000000e-02 +0.000000e+00 
+1.560000e+00 -4.000000e-02 +0.000000e+00 
+1.580000e+00 -4.000000e-02 +0.000000e+00 
+1.600000e+00 -6.000000e-02 +0.000000e+00 
+1.620000e+00 -6.000000e-02 +0.000000e+00 
+1.640000e+00 -6.000000e-02 +0.000000e+00 
+1.600000e+00 -4.000000e-02 +0.000000e+00 
+1.620000e+00 -4.000000e-02 +0.000000e+00 
+1.640000e+00 -4.000000e-02 +0.000000e+00 
+1.660000e+00 -6.000000e-02 +0.000000e+00 
+1.680000e+00 -6.000000e-02 +0.000000e+00 
+1.660000e+00 -4.000000e-02 +0.000000e+00 
+1.680000e+00 -4.000000e-02 +0.000000e+00 
+1.700000e+00 -6.000000e-02 +0.000000e+00 
+1.720000e+00 -6.000000e-02 +0.000000e+00 
+1.700000e+00 -4.000000e-02 +0.000000e+00 
+1.720000e+00 -4.000000e-02 +0.000000e+00 
+1.740000e+00 -6.000000e-02 +0.000000e+00 
+1.760000e+00 -6.000000e-02 +0.000000e+00 
+1.780000e+00 -6.000000e-02 +0.000000e+00 
+1.740000e+00 -4.000000e-02 +0.000000e+00 
+1.760000e+00 -4.000000e-02 +0.000000e+00 
+1.780000e+00 -4.000000e-02 +0.000000e+00 
+1.800000e+00 -6.000000e-02 +0.000000e+00 
+1.820000e+00 -6.000000e-02 +0.000000e+00 
+1.800000e+00 -4.000000e-02 +0.000000e+00 
+1.820000e+00 -4.000000e-02 +0.000000e+00 
+1.840000e+00 -6.000000e-02 +0.000000e+00 
+1.860000e+00 -6.000000e-02 +0.000000e+00 
+1.880000e+00 -6.000000e-02 +0.000000e+00 
+1.840000e+00 -4.000000e-02 +0.000000e+00 
+1.860000e+00 -4.000000e-02 +0.000000e+00 
+1.880000e+00 -4.000000e-02 +0.000000e+00 
+1.900000e+00 -6.000000e-02 +0.000000e+00 
+1.920000e+00 -6.000000e-02 +0.000000e+00 
+1.900000e+00 -4.000000e-02 +0.000000e+00 
+1.920000e+00 -4.000000e-02 +0.000000e+00 
+1.940000e+00 -6.000000e-02 +0.000000e+00 
+1.960000e+00 -6.000000e-02 +0.000000e+00 
+1.940000e+00 -4.000000e-02 +0.000000e+00 
+1.960000e+00 -4.000000e-02 +0.000000e+00 
+1.980000e+00 -6.000000e-02 +0.000000e+00 
+2.000000e+00 -6.000000e-02 +0.000000e+00 
+2.020000e+00 -6.000000e-02 +0.000000e+00 
+1.980000e+00 -4.000000e-02 +0.000000e+00 
+2.000000e+00 -4.000000e-02 +0.000000e+00 
+2.020000e+00 -4.000000e-02 +0.000000e+00 
+2.040000e+00 -6.000000e-02 +0.000000e+00 
+2.060000e+00 -6.000000e-02 +0.000000e+00 
+2.040000e+00 -4.000000e-02 +0.000000e+00 
+2.060000e+00 -4.000000e-02 +0.000000e+00 
+2.080000e+00 -6.000000e-02 +0.000000e+00 
+2.100000e+00 -6.000000e-02 +0.000000e+00 
+2.120000e+00 -6.000000e-02 +0.000000e+00 
+2.080000e+00 -4.000000e-02 +0.000000e+00 
+2.100000e+00 -4.000000e-02 +0.000000e+00 
+2.120000e+00 -4.000000e-02 +0.000000e+00 
+2.140000e+00 -6.000000e-02 +0.000000e+00 
+2.160000e+00 -6.000000e-02 +0.000000e+00 
+2.140000e+00 -4.000000e-02 +0.000000e+00 
+2.160000e+00 -4.000000e-02 +0.000000e+00 
+2.180000e+00 -6.000000e-02 +0.000000e+00 
+2.200000e+00 -6.000000e-02 +0.000000e+00 
+2.180000e+00 -4.000000e-02 +0.000000e+00 
+2.200000e+00 -4.000000e-02 +0.000000e+00 
+2.220000e+00 -6.000000e-02 +0.000000e+00 
+2.240000e+00 -6.000000e-02 +0.000000e+00 
[...]
POINT_DATA 6462 
SCALARS density float 1 
LOOKUP_TABLE default
+1.002837e+03 
+1.002851e+03 
+1.002844e+03 
+1.002863e+03 
+1.002873e+03 
+1.002895e+03 
+1.002894e+03 
+1.002924e+03 
+1.002913e+03 
+1.002924e+03 
+1.002943e+03 
+1.002955e+03 
+1.002929e+03 
+1.002930e+03 
+1.002928e+03 
+1.002959e+03 
+1.002959e+03 
+1.002957e+03 
+1.002925e+03 
+1.002922e+03 
+1.002953e+03 
+1.002949e+03 
+1.002919e+03 
+1.002918e+03 
+1.002920e+03 
+1.002945e+03 
+1.002944e+03 
+1.002945e+03 
+1.002924e+03 
+1.002929e+03 
+1.002952e+03 
+1.002955e+03 
+1.002935e+03 
+1.002944e+03 
+1.002960e+03 
+1.002971e+03 
+1.002955e+03 
+1.002963e+03 
+1.002964e+03 
+1.002983e+03 
+1.002999e+03 
+1.002999e+03 
+1.002958e+03 
+1.002961e+03 
+1.002976e+03 
+1.002979e+03 
+1.002973e+03 
+1.002988e+03 
+1.003000e+03 
+1.002996e+03 
+1.003015e+03 
+1.003024e+03 
+1.003010e+03 
+1.003018e+03 
+1.003033e+03 
+1.003043e+03 
+1.003022e+03 
+1.003024e+03 
+1.003045e+03 
+1.003045e+03 
+1.003022e+03 
+1.003015e+03 
+1.002999e+03 
+1.003047e+03 
+1.003041e+03 
+1.003016e+03 
+1.002983e+03 
+1.002974e+03 
+1.002993e+03 
+1.002989e+03 
+1.002969e+03 
+1.002963e+03 
+1.002956e+03 
+1.002986e+03 
+1.002980e+03 
+1.002970e+03 
+1.002950e+03 
+1.002947e+03 
+1.002964e+03 
+1.002952e+03 
+1.002951e+03 
+1.002962e+03 
+1.002959e+03 
+1.002977e+03 
+1.002969e+03 
+1.002968e+03 
+1.002958e+03 
+1.002991e+03 
+1.002987e+03 
+1.002973e+03 
+1.002940e+03 
+1.002915e+03 
+1.002958e+03 
+1.002924e+03 
+1.002892e+03 
+1.002877e+03 
+1.002890e+03 
+1.002884e+03 
+1.002868e+03 
+1.002858e+03 
+1.002831e+03 
+1.002872e+03 
+1.002884e+03 
+1.002862e+03 
+1.002787e+03 
+1.002758e+03 
+1.002773e+03 
+1.002759e+03 
+1.002734e+03 
+1.002715e+03 
+1.002710e+03 
+1.002745e+03 
+1.002702e+03 
+1.002711e+03 
+1.002709e+03 
+1.002702e+03 
+1.002718e+03 
+1.002722e+03 
+1.002685e+03 
+1.002668e+03 
+1.002649e+03 
+1.002686e+03 
+1.002677e+03 
+1.002657e+03 
+1.002626e+03 
+1.002601e+03 
+1.002630e+03 
+1.002618e+03 
+1.002571e+03 
+1.002548e+03 
+1.002565e+03 
+1.002543e+03 
+1.002532e+03 
+1.002508e+03 
+1.002471e+03 
+1.002540e+03 
+1.002533e+03 
+1.002449e+03 
+1.002442e+03 
+1.002414e+03 
+1.002460e+03 
+1.002397e+03 
+1.002397e+03 
+1.002398e+03 
+1.002411e+03 
+1.002381e+03 
+1.002390e+03 
+1.002404e+03 
+1.002423e+03 
+1.002417e+03 
+1.002447e+03 
+1.002426e+03 
+1.002398e+03 
+1.002373e+03 
+1.002412e+03 
+1.002337e+03 
+1.002367e+03 
+1.002358e+03 
+1.002325e+03 
+1.002368e+03 
+1.002391e+03 
+1.002310e+03 
+1.002293e+03 
+1.002273e+03 
+1.002280e+03 
+1.002256e+03 
+1.002267e+03 
+1.002256e+03 
+1.002235e+03 
+1.002262e+03 
+1.002279e+03 
+1.002220e+03 
+1.002223e+03 
+1.002224e+03 
+1.002198e+03 
+1.002247e+03 
+1.002212e+03 
+1.002190e+03 
+1.002209e+03 
+1.002197e+03 
+1.002160e+03 
+1.002127e+03 
+1.002089e+03 
+1.002155e+03 
+1.002127e+03 
+1.002088e+03 
+1.002061e+03 
+1.002064e+03 
+1.002023e+03 
+1.002039e+03 
+1.002081e+03 
+1.002074e+03 
+1.002051e+03 
+1.002113e+03 
+1.002083e+03 
+1.002050e+03 
+1.002021e+03 
+1.001996e+03 
+1.002017e+03 
+1.001964e+03 
+1.001991e+03 
+1.001994e+03 
+1.001979e+03 
+1.001975e+03 
+1.001998e+03 
+1.001991e+03 
+1.001969e+03 
+1.001999e+03 
+1.001985e+03 
+1.001960e+03 
+1.001937e+03 
+1.001906e+03 
+1.001901e+03 
+1.001911e+03 
+1.001865e+03 
+1.001821e+03 
+1.001788e+03 
+1.001841e+03 
+1.001797e+03 
+1.001752e+03 
+1.001766e+03 
+1.001734e+03 
+1.001781e+03 
+1.001730e+03 
+1.001715e+03 
+1.001734e+03 
+1.001648e+03 
+1.001744e+03 
+1.001754e+03 
+1.001742e+03 
+1.001734e+03 
+1.001806e+03 
+1.001735e+03 
+1.001758e+03 
+1.001730e+03 
+1.001742e+03 
+1.001719e+03 
+1.001799e+03 
+1.001737e+03 
+1.001718e+03 
+1.001683e+03 
+1.001755e+03 
+1.001745e+03 
+1.001721e+03 
+1.001620e+03 
+1.001580e+03 
+1.001611e+03 
+1.001524e+03 
+1.001582e+03 
+1.001586e+03 
+1.001585e+03 
+1.001587e+03 
+1.001578e+03 
+1.001546e+03 
+1.001538e+03 
+1.001597e+03 
+1.001509e+03 
+1.001496e+03 
+1.001537e+03 
+1.001502e+03 
+1.001585e+03 
+1.001470e+03 
+1.001453e+03 
+1.001426e+03 
+1.001383e+03 
+1.001398e+03 
+1.001442e+03 
+1.001349e+03 
+1.001338e+03 
+1.001311e+03 
+1.001301e+03 
+1.001289e+03 
+1.001285e+03 
+1.001255e+03 
+1.001275e+03 
+1.001213e+03 
+1.001240e+03 
+1.001226e+03 
+1.001209e+03 
+1.001236e+03 
+1.001223e+03 
+1.001217e+03 
+1.001179e+03 
+1.001152e+03 
+1.001163e+03 
+1.001162e+03 
+1.001127e+03 
+1.001097e+03 
+1.001079e+03 
+1.001139e+03 
+1.001123e+03 
+1.001023e+03 
+1.001102e+03 
+1.001120e+03 
+1.001116e+03 
+1.001134e+03 
+1.001115e+03 
+1.001084e+03 
+1.001122e+03 
+1.001057e+03 
+1.001050e+03 
+1.001058e+03 
+1.001083e+03 
+1.000959e+03 
+1.001014e+03 
+1.001024e+03 
+1.001123e+03 
+1.001152e+03 
+1.001100e+03 
+1.001178e+03 
+1.001148e+03 
+1.001156e+03 
+1.001171e+03 
+1.001089e+03 
+1.001095e+03 
+1.001222e+03 
+1.001133e+03 
+1.001077e+03 
+1.001104e+03 
+1.000989e+03 
+1.001054e+03 
+1.001020e+03 
+1.001051e+03 
+1.000964e+03 
+1.000996e+03 
+1.000977e+03 
+1.000945e+03 
+1.000931e+03 
+1.000938e+03 
+1.000919e+03 
+1.000900e+03 
+1.000877e+03 
+1.000850e+03 
+1.000780e+03 
+1.000890e+03 
+1.000935e+03 
+1.001021e+03 
+1.000867e+03 
+1.000841e+03 
+1.001137e+03 
+1.001024e+03 
+1.000964e+03 
+1.001106e+03 
+1.000979e+03 
+1.000935e+03 
+1.000989e+03 
+1.000847e+03 
+1.001083e+03 
+1.001014e+03 
+1.001010e+03 
+1.001033e+03 
+1.001053e+03 
+1.000938e+03 
+1.001104e+03 
+1.001005e+03 
+1.000978e+03 
+1.000975e+03 
+1.000888e+03 
+1.000982e+03 
+1.000978e+03 
+1.000924e+03 
+1.000944e+03 
+1.000972e+03 
+1.000850e+03 
+1.000863e+03 
+1.000804e+03 
+1.000790e+03 
+1.000737e+03 
+1.000749e+03 
+1.000763e+03 
+1.000620e+03 
+1.000670e+03 
+1.000777e+03 
+1.000801e+03 
+1.000846e+03 
+1.000722e+03 
+1.000717e+03 
+1.000745e+03 
+1.000939e+03 
+1.000983e+03 
+1.000991e+03 
+1.001033e+03 
+1.000990e+03 
+1.000945e+03 
+1.000942e+03 
+1.001074e+03 
+1.000883e+03 
+1.001007e+03 
+1.000909e+03 
+1.000862e+03 
+1.000922e+03 
+1.000714e+03 
+1.000913e+03 
+1.000965e+03 
+1.000876e+03 
+1.001048e+03 
+1.000910e+03 
+1.000804e+03 
+1.000793e+03 
+1.000951e+03 
+1.000705e+03 
+1.000715e+03 
+1.000834e+03 
+1.000818e+03 
+1.000946e+03 
+1.000787e+03 
+1.000818e+03 
+1.000803e+03 
+1.000764e+03 
+1.000843e+03 
+1.000846e+03 
+1.000656e+03 
+1.000825e+03 
+1.000875e+03 
+1.000821e+03 
+1.000886e+03 
+1.000910e+03 
+1.000885e+03 
+1.000955e+03 
+1.000946e+03 
+1.000840e+03 
+1.000879e+03 
+1.001140e+03 
+1.000752e+03 
+1.000609e+03 
+1.001201e+03 
+1.001310e+03 
+1.001307e+03 
+1.001492e+03 
+1.001351e+03 
+1.001228e+03 
+1.001185e+03 
+1.001201e+03 
+1.001273e+03 
+1.001072e+03 
+1.000880e+03 
+1.000736e+03 
+1.001188e+03 
+1.000824e+03 
+1.000542e+03 
+1.000721e+03 
+1.000721e+03 
+1.000710e+03 
+1.000601e+03 
+1.000780e+03 
+1.000822e+03 
+1.000824e+03 
+1.000744e+03 
+1.000868e+03 
+1.000825e+03 
+1.000833e+03 
+1.000798e+03 
+1.000918e+03 
+1.000878e+03 
+1.000752e+03 
+1.000683e+03 
+1.000568e+03 
+1.000865e+03 
+1.000858e+03 
+1.000583e+03 
+1.000568e+03 
+1.000715e+03 
+1.000492e+03 
+1.000995e+03 
+1.000727e+03 
+1.000586e+03 
+1.000995e+03 
+1.000502e+03 
+1.000567e+03 
+1.000656e+03 
+1.000603e+03 
+1.000477e+03 
+1.000898e+03 
+1.000653e+03 
+1.000584e+03 
+1.000887e+03 
+1.000223e+03 
+1.000684e+03 
+1.001371e+03 
+1.001627e+03 
+1.001548e+03 
+1.001726e+03 
+1.001726e+03 
+1.001710e+03 
+1.001540e+03 
+1.001713e+03 
+1.001812e+03 
+1.001635e+03 
+1.001235e+03 
+1.000932e+03 
+1.001237e+03 
+1.000857e+03 
+1.000739e+03 
+1.000766e+03 
+1.000992e+03 
+1.000557e+03 
+1.000605e+03 
+1.001018e+03 
+1.001240e+03 
+1.001447e+03 
+1.001294e+03 
+1.001576e+03 
+1.001553e+03 
+1.001463e+03 
+1.001351e+03 
+1.001767e+03 
+1.001510e+03 
+1.001440e+03 
+1.001164e+03 
+1.000849e+03 
+1.001370e+03 
+1.000799e+03 
+1.000666e+03 
+1.000790e+03 
+1.000435e+03 
+1.000643e+03 
+1.001172e+03 
+1.001690e+03 
+1.002130e+03 
+1.001108e+03 
+1.001836e+03 
+1.002317e+03 
+1.002387e+03 
+1.002606e+03 
+1.002363e+03 
+1.002403e+03 
+1.002923e+03 
+1.003234e+03 
+1.003488e+03 
+1.002794e+03 
+1.003146e+03 
+1.003393e+03 
+1.003677e+03 
+1.003794e+03 
+1.003600e+03 
+1.003711e+03 
+1.003867e+03 
+1.003891e+03 
+1.003783e+03 
+1.003740e+03 
+1.003918e+03 
+1.004047e+03 
+1.004279e+03 
+1.003630e+03 
+1.003733e+03 
+1.004052e+03 
+1.004515e+03 
+1.004677e+03 
+1.004350e+03 
+1.004522e+03 
+1.002849e+03 
+1.002878e+03 
+1.002845e+03 
+1.002884e+03 
+1.002940e+03 
+1.002998e+03 
+1.002981e+03 
+1.003022e+03 
+1.003007e+03 
+1.003020e+03 
+1.003006e+03 
+1.003022e+03 
+1.003021e+03 
+1.003019e+03 
+1.003013e+03 
+1.003014e+03 
+1.003012e+03 
+1.003010e+03 
+1.003000e+03 
+1.003002e+03 
+1.002990e+03 
+1.002980e+03 
+1.002989e+03 
+1.002994e+03 
+1.002993e+03 
+1.002978e+03 
+1.002971e+03 
+1.003007e+03 
+1.003009e+03 
+1.003014e+03 
+1.002993e+03 
+1.003052e+03 
+1.002994e+03 
+1.003028e+03 
+1.002982e+03 
+1.003015e+03 
+1.003094e+03 
+1.003120e+03 
+1.002979e+03 
+1.002998e+03 
+1.003043e+03 
+1.002965e+03 
+1.003023e+03 
+1.003014e+03 
+1.003055e+03 
+1.003030e+03 
+1.003067e+03 
+1.003070e+03 
+1.003057e+03 
+1.003048e+03 
+1.003067e+03 
+1.003097e+03 
+1.003086e+03 
+1.003075e+03 
+1.003060e+03 
+1.003088e+03 
+1.003080e+03 
+1.003035e+03 
+1.003068e+03 
+1.003103e+03 
+1.003076e+03 
+1.003036e+03 
+1.003005e+03 
+1.003010e+03 
+1.002969e+03 
+1.003018e+03 
+1.003026e+03 
+1.003008e+03 
+1.003048e+03 
+1.003024e+03 
+1.002965e+03 
+1.002968e+03 
+1.002937e+03 
+1.003002e+03 
+1.002932e+03 
+1.002927e+03 
+1.002981e+03 
+1.002982e+03 
+1.003005e+03 
+1.002922e+03 
+1.002969e+03 
+1.003036e+03 
+1.003021e+03 
+1.003005e+03 
+1.003000e+03 
+1.002909e+03 
+1.002984e+03 
+1.002931e+03 
+1.002828e+03 
+1.002867e+03 
+1.002852e+03 
+1.002948e+03 
+1.002892e+03 
+1.002850e+03 
+1.002856e+03 
+1.002917e+03 
+1.002989e+03 
+1.002771e+03 
+1.002734e+03 
+1.002764e+03 
+1.002599e+03 
+1.002852e+03 
+1.002774e+03 
+1.002712e+03 
+1.002779e+03 
+1.002581e+03 
+1.002771e+03 
+1.002689e+03 
+1.002731e+03 
+1.002769e+03 
+1.002767e+03 
+1.002682e+03 
+1.002644e+03 
+1.002597e+03 
+1.002729e+03 
+1.002690e+03 
+1.002639e+03 
+1.002626e+03 
+1.002625e+03 
+1.002665e+03 
+1.002619e+03 
+1.002615e+03 
+1.002568e+03 
+1.002520e+03 
+1.002551e+03 
+1.002577e+03 
+1.002449e+03 
+1.002548e+03 
+1.002658e+03 
+1.002366e+03 
+1.002512e+03 
+1.002453e+03 
+1.002442e+03 
+1.002499e+03 
+1.002389e+03 
+1.002470e+03 
+1.002372e+03 
+1.002375e+03 
+1.002356e+03 
+1.002430e+03 
+1.002516e+03 
+1.002374e+03 
+1.002566e+03 
+1.002349e+03 
+1.002413e+03 
+1.002346e+03 
+1.002501e+03 
+1.002243e+03 
+1.002433e+03 
+1.002236e+03 
+1.002361e+03 
+1.002496e+03 
+1.002179e+03 
+1.002297e+03 
+1.002244e+03 
+1.002315e+03 
+1.002195e+03 
+1.002267e+03 
+1.002186e+03 
+1.002356e+03 
+1.002282e+03 
+1.002177e+03 
+1.002182e+03 
+1.002132e+03 
+1.002368e+03 
+1.002138e+03 
+1.002150e+03 
+1.002111e+03 
+1.002241e+03 
+1.002148e+03 
+1.002077e+03 
+1.002102e+03 
+1.002088e+03 
+1.002179e+03 
+1.002093e+03 
+1.002033e+03 
+1.002036e+03 
+1.001927e+03 
+1.002041e+03 
+1.002055e+03 
+1.002206e+03 
+1.001972e+03 
+1.002070e+03 
+1.001900e+03 
+1.002016e+03 
+1.001966e+03 
+1.002040e+03 
+1.001821e+03 
+1.002016e+03 
+1.001866e+03 
+1.002057e+03 
+1.001939e+03 
+1.002012e+03 
+1.001764e+03 
+1.001983e+03 
+1.001904e+03 
+1.002038e+03 
+1.001852e+03 
+1.001791e+03 
+1.001920e+03 
+1.001822e+03 
+1.001779e+03 
+1.001692e+03 
+1.001830e+03 
+1.001688e+03 
+1.001653e+03 
+1.001826e+03 
+1.001861e+03 
+1.001638e+03 
+1.001610e+03 
+1.001750e+03 
+1.001925e+03 
+1.001648e+03 
+1.001721e+03 
+1.001739e+03 
+1.001972e+03 
+1.001484e+03 
+1.002046e+03 
+1.001717e+03 
+1.001763e+03 
+1.001533e+03 
+1.001998e+03 
+1.001974e+03 
+1.001449e+03 
+1.002022e+03 
+1.001719e+03 
+1.001706e+03 
+1.001974e+03 
+1.001467e+03 
+1.001649e+03 
+1.001498e+03 
+1.001313e+03 
+1.001705e+03 
+1.001479e+03 
+1.001765e+03 
+1.001389e+03 
+1.001440e+03 
+1.001856e+03 
+1.001912e+03 
+1.001236e+03 
+1.001525e+03 
+1.001309e+03 
+1.001290e+03 
+1.001583e+03 
+1.001671e+03 
+1.001402e+03 
+1.001219e+03 
+1.001064e+03 
+1.001474e+03 
+1.001333e+03 
+1.000888e+03 
+1.001606e+03 
+1.001153e+03 
+1.001331e+03 
+1.001278e+03 
+1.001111e+03 
+1.001369e+03 
+1.001055e+03 
+1.001159e+03 
+1.001234e+03 
+1.001403e+03 
+1.000991e+03 
+1.001408e+03 
+1.001028e+03 
+1.001278e+03 
+1.001071e+03 
+1.001192e+03 
+1.000906e+03 
+1.001260e+03 
+1.001209e+03 
+1.001185e+03 
+1.000695e+03 
+1.001125e+03 
+1.000990e+03 
+1.001435e+03 
+1.001091e+03 
+1.001211e+03 
+1.000667e+03 
+1.000958e+03 
+1.001251e+03 
+1.001130e+03 
+1.001006e+03 
+1.000534e+03 
+1.001104e+03 
+1.000951e+03 
+1.000664e+03 
+1.001259e+03 
+1.001018e+03 
+1.001281e+03 
+1.000824e+03 
+1.000948e+03 
+1.000955e+03 
+1.000981e+03 
+1.001317e+03 
+1.000842e+03 
+1.000877e+03 
+1.001140e+03 
+1.000522e+03 
+1.000737e+03 
+1.001358e+03 
+1.000639e+03 
+1.000925e+03 
+1.000713e+03 
+1.000842e+03 
+1.000996e+03 
+1.000837e+03 
+1.001123e+03 
+1.000273e+03 
+1.000570e+03 
+1.000732e+03 
+1.001484e+03 
+1.001043e+03 
+1.001226e+03 
+9.998871e+02 
+1.001876e+03 
+1.000630e+03 
+1.001255e+03 
+1.001108e+03 
+1.001238e+03 
+1.001015e+03 
+1.000996e+03 
+1.000295e+03 
+1.001579e+03 
+1.000788e+03 
+1.001246e+03 
+1.001437e+03 
+1.000238e+03 
+1.001646e+03 
+1.000314e+03 
+1.001061e+03 
+1.000568e+03 
+1.000829e+03 
+1.000182e+03 
+1.000295e+03 
+1.000666e+03 
+1.001288e+03 
+1.000420e+03 
+1.000937e+03 
+1.000593e+03 
+1.000099e+03 
+1.000564e+03 
+1.001117e+03 
+1.000981e+03 
+1.000117e+03 
+9.995940e+02 
+1.001218e+03 
+1.000533e+03 
+1.000929e+03 
+1.000207e+03 
+1.000826e+03 
+1.000078e+03 
+1.000044e+03 
+1.000872e+03 
+1.001808e+03 
+1.000255e+03 
+1.000217e+03 
+1.000912e+03 
+1.002260e+03 
+1.000025e+03 
+1.000981e+03 
+1.000376e+03 
+1.001071e+03 
+1.001452e+03 
+9.997090e+02 
+1.001331e+03 
+1.000022e+03 
+1.000764e+03 
+1.001557e+03 
+1.001463e+03 
+1.001002e+03 
+1.001415e+03 
+9.999108e+02 
+1.000536e+03 
+1.000755e+03 
+1.001107e+03 
+1.002067e+03 
+9.998721e+02 
+1.000876e+03 
+1.000991e+03 
+1.001913e+03 
+9.990954e+02 
+1.000737e+03 
+1.001866e+03 
+1.000319e+03 
+1.000351e+03 
+1.000849e+03 
+1.001375e+03 
+1.000838e+03 
+1.001094e+03 
+1.001793e+03 
+9.979328e+02 
+1.002516e+03 
+9.997393e+02 
+1.001640e+03 
+1.001932e+03 
+1.000421e+03 
+9.999369e+02 
+1.000231e+03 
+1.001935e+03 
+1.001563e+03 
+1.000970e+03 
+9.993012e+02 
+1.001540e+03 
+1.000590e+03 
+1.001370e+03 
+9.993457e+02 
+1.000484e+03 
+1.000240e+03 
+1.001196e+03 
+1.001253e+03 
+1.000128e+03 
+1.000556e+03 
+1.001704e+03 
+1.000896e+03 
+1.000578e+03 
+1.000594e+03 
+1.000678e+03 
+1.002025e+03 
+1.000558e+03 
+1.000494e+03 
+9.992839e+02 
+1.002290e+03 
+1.002453e+03 
+9.996347e+02 
+9.997021e+02 
+1.000558e+03 
+1.000045e+03 
+9.991789e+02 
+1.002793e+03 
+1.001010e+03 
+9.996590e+02 
+9.987268e+02 
+9.987237e+02 
+1.000064e+03 
+1.000456e+03 
+1.004271e+03 
+1.000926e+03 
+1.001682e+03 
+1.002128e+03 
+1.002251e+03 
+1.000873e+03 
+1.000980e+03 
+1.000520e+03 
+1.000021e+03 
+9.995203e+02 
+1.001680e+03 
+1.000304e+03 
+1.001578e+03 
+1.000728e+03 
+1.000484e+03 
+1.000456e+03 
+1.004082e+03 
+1.000310e+03 
+1.001468e+03 
+1.000525e+03 
+1.003019e+03 
+1.000301e+03 
+1.001940e+03 
+1.001152e+03 
+9.993085e+02 
+1.000718e+03 
+1.001561e+03 
+9.998136e+02 
+1.000898e+03 
+1.002127e+03 
+1.003424e+03 
+1.002498e+03 
+1.001033e+03 
+1.000636e+03 
+1.001482e+03 
+1.002363e+03 
+1.003117e+03 
+1.002984e+03 
+1.003045e+03 
+1.003117e+03 
+1.003810e+03 
+1.003415e+03 
+1.002451e+03 
+1.003927e+03 
+1.003629e+03 
+1.001937e+03 
+1.002869e+03 
+1.002957e+03 
+1.003716e+03 
+1.003541e+03 
+1.002303e+03 
+1.004098e+03 
+1.004290e+03 
+1.003770e+03 
+1.004001e+03 
+1.002824e+03 
+1.002864e+03 
+1.002785e+03 
+1.002824e+03 
+1.002970e+03 
+1.002953e+03 
+1.002906e+03 
+1.002922e+03 
+1.002940e+03 
+1.002976e+03 
+1.002878e+03 
+1.002926e+03 
+1.002965e+03 
+1.002953e+03 
+1.002915e+03 
+1.002897e+03 
+1.002945e+03 
+1.002796e+03 
+1.002842e+03 
+1.002932e+03 
+1.002878e+03 
+1.002919e+03 
+1.002866e+03 
+1.002764e+03 
+1.002786e+03 
+1.002920e+03 
+1.002913e+03 
+1.002851e+03 
+1.002856e+03 
+1.002772e+03 
+1.002756e+03 
+1.002856e+03 
+1.002922e+03 
+1.002813e+03 
+1.002968e+03 
+1.002883e+03 
+1.002788e+03 
+1.002906e+03 
+1.002961e+03 
+1.002926e+03 
+1.002830e+03 
+1.002763e+03 
+1.002995e+03 
+1.002793e+03 
+1.002951e+03 
+1.002908e+03 
+1.002825e+03 
+1.002758e+03 
+1.003028e+03 
+1.002848e+03 
+1.002899e+03 
+1.002972e+03 
+1.002792e+03 
+1.002781e+03 
+1.002931e+03 
+1.002984e+03 
+1.002810e+03 
+1.002930e+03 
+1.002995e+03 
+1.002830e+03 
+1.002911e+03 
+1.002990e+03 
+1.002806e+03 
+1.002926e+03 
+1.002987e+03 
+1.002853e+03 
+1.002929e+03 
+1.003010e+03 
+1.002913e+03 
+1.003009e+03 
+1.002821e+03 
+1.002815e+03 
+1.002940e+03 
+1.003002e+03 
+1.002846e+03 
+1.002943e+03 
+1.002870e+03 
+1.002960e+03 
+1.002765e+03 
+1.002882e+03 
+1.002974e+03 
+1.002814e+03 
+1.002893e+03 
+1.002954e+03 
+1.002795e+03 
+1.002917e+03 
+1.002988e+03 
+1.002808e+03 
+1.002924e+03 
+1.002838e+03 
+1.002916e+03 
+1.002870e+03 
+1.002921e+03 
+1.002777e+03 
+1.002849e+03 
+1.002886e+03 
+1.002822e+03 
+1.002860e+03 
+1.002928e+03 
+1.002743e+03 
+1.002799e+03 
+1.002860e+03 
+1.002760e+03 
+1.002911e+03 
+1.002809e+03 
+1.002674e+03 
+1.002719e+03 
+1.002911e+03 
+1.002682e+03 
+1.002788e+03 
+1.002838e+03 
+1.002706e+03 
+1.002842e+03 
+1.002791e+03 
+1.002692e+03 
+1.002868e+03 
+1.002808e+03 
+1.002679e+03 
+1.002826e+03 
+1.002755e+03 
+1.002603e+03 
+1.002823e+03 
+1.002705e+03 
+1.002630e+03 
+1.002705e+03 
+1.002637e+03 
+1.002690e+03 
+1.002649e+03 
+1.002718e+03 
+1.002513e+03 
+1.002641e+03 
+1.002542e+03 
+1.002641e+03 
+1.002544e+03 
+1.002666e+03 
+1.002506e+03 
+1.002574e+03 
+1.002673e+03 
+1.002506e+03 
+1.002586e+03 
+1.002661e+03 
+1.002492e+03 
+1.002574e+03 
+1.002634e+03 
+1.002499e+03 
+1.002518e+03 
+1.002601e+03 
+1.002440e+03 
+1.002412e+03 
+1.002488e+03 
+1.002588e+03 
+1.002521e+03 
+1.002535e+03 
+1.002401e+03 
+1.002451e+03 
+1.002496e+03 
+1.002373e+03 
+1.002437e+03 
+1.002514e+03 
+1.002372e+03 
+1.002407e+03 
+1.002502e+03 
+1.002298e+03 
+1.002403e+03 
+1.002425e+03 
+1.002290e+03 
+1.002382e+03 
+1.002283e+03 
+1.002353e+03 
+1.002322e+03 
+1.002297e+03 
+1.002385e+03 
+1.002441e+03 
+1.002492e+03 
+1.002240e+03 
+1.002297e+03 
+1.002168e+03 
+1.002370e+03 
+1.002288e+03 
+1.002431e+03 
+1.002254e+03 
+1.002163e+03 
+1.002304e+03 
+1.002297e+03 
+1.002196e+03 
+1.002329e+03 
+1.002420e+03 
+1.002136e+03 
+1.002198e+03 
+1.002111e+03 
+1.002194e+03 
+1.002239e+03 
+1.002216e+03 
+1.002065e+03 
+1.002251e+03 
+1.002175e+03 
+1.002192e+03 
+1.002035e+03 
+1.002188e+03 
+1.002017e+03 
+1.002255e+03 
+1.002167e+03 
+1.002057e+03 
+1.002201e+03 
+1.002157e+03 
+1.002085e+03 
+1.002167e+03 
+1.002039e+03 
+1.002071e+03 
+1.002089e+03 
+1.002003e+03 
+1.002079e+03 
+1.002074e+03 
+1.001969e+03 
+1.002045e+03 
+1.002077e+03 
+1.001965e+03 
+1.002006e+03 
+1.002037e+03 
+1.001888e+03 
+1.001922e+03 
+1.001997e+03 
+1.001909e+03 
+1.001933e+03 
+1.002035e+03 
+1.001885e+03 
+1.001889e+03 
+1.001987e+03 
+1.001903e+03 
+1.002069e+03 
+1.001912e+03 
+1.001814e+03 
+1.002019e+03 
+1.001833e+03 
+1.001807e+03 
+1.001840e+03 
+1.001835e+03 
+1.001882e+03 
+1.001853e+03 
+1.001904e+03 
+1.001713e+03 
+1.001815e+03 
+1.001911e+03 
+1.001690e+03 
+1.001807e+03 
+1.001834e+03 
+1.001782e+03 
+1.001703e+03 
+1.001896e+03 
+1.001823e+03 
+1.001682e+03 
+1.001690e+03 
+1.001640e+03 
+1.001830e+03 
+1.001707e+03 
+1.001710e+03 
+1.001743e+03 
+1.001520e+03 
+1.001637e+03 
+1.001646e+03 
+1.001609e+03 
+1.001748e+03 
+1.001589e+03 
+1.001540e+03 
+1.001659e+03 
+1.001726e+03 
+1.001568e+03 
+1.001561e+03 
+1.001521e+03 
+1.001667e+03 
+1.001669e+03 
+1.001494e+03 
+1.001813e+03 
+1.001800e+03 
+1.001640e+03 
+1.001647e+03 
+1.001502e+03 
+1.001565e+03 
+1.001711e+03 
+1.001542e+03 
+1.001846e+03 
+1.001626e+03 
+1.001484e+03 
+1.001665e+03 
+1.001511e+03 
+1.001739e+03 
+1.001435e+03 
+1.001657e+03 
+1.001562e+03 