# vtk DataFile Version 2.0
Unstructured Grid Example
ASCII
DATASET UNSTRUCTURED_GRID
POINTS 6462 float
-6.000000e-02 -6.000000e-02 +0.000000e+00 
-4.000000e-02 -6.000000e-02 +0.000000e+00 
-6.000000e-02 -4.000000e-02 +0.000000e+00 
-4.000000e-02 -4.000000e-02 +0.000000e+00 
-2.000000e-02 -6.000000e-02 +0.000000e+00 
+0.000000e+00 -6.000000e-02 +0.000000e+00 
-2.000000e-02 -4.000000e-02 +0.000000e+00 
+0.000000e+00 -4.000000e-02 +0.000000e+00 
+2.000000e-02 -6.000000e-02 +0.000000e+00 
+4.000000e-02 -6.000000e-02 +0.000000e+00 
+2.000000e-02 -4.000000e-02 +0.000000e+00 
+4.000000e-02 -4.000000e-02 +0.000000e+00 
+6.000000e-02 -6.000000e-02 +0.000000e+00 
+8.000000e-02 -6.000000e-02 +0.000000e+00 
+1.000000e-01 -6.000000e-02 +0.000000e+00 
+6.000000e-02 -4.000000e-02 +0.000000e+00 
+8.000000e-02 -4.000000e-02 +0.000000e+00 
+1.000000e-01 -4.000000e-02 +0.000000e+00 
+1.200000e-01 -6.000000e-02 +0.000000e+00 
+1.400000e-01 -6.000000e-02 +0.000000e+00 
+1.200000e-01 -4.000000e-02 +0.000000e+00 
+1.400000e-01 -4.000000e-02 +0.000000e+00 
+1.600000e-01 -6.000000e-02 +0.000000e+00 
+1.800000e-01 -6.000000e-02 +0.000000e+00 
+2.000000e-01 -6.000000e-02 +0.000000e+00 
+1.600000e-01 -4.000000e-02 +0.000000e+00 
+1.800000e-01 -4.000000e-02 +0.000000e+00 
+2.000000e-01 -4.000000e-02 +0.000000e+00 
+2.200000e-01 -6.000000e-02 +0.000000e+00 
+2.400000e-01 -6.000000e-02 +0.000000e+00 
+2.200000e-01 -4.000000e-02 +0.000000e+00 
+2.400000e-01 -4.000000e-02 +0.000000e+00 
+2.600000e-01 -6.000000e-02 +0.000000e+00 
+2.800000e-01 -6.000000e-02 +0.000000e+00 
+2.600000e-01 -4.000000e-02 +0.000000e+00 
+2.800000e-01 -4.000000e-02 +0.000000e+00 
+3.000000e-01 -6.000000e-02 +0.000000e+00 
+3.200000e-01 -6.000000e-02 +0.000000e+00 
+3.400000e-01 -6.000000e-02 +0.000000e+00 
+3.000000e-01 -4.000000e-02 +0.000000e+00 
+3.200000e-01 -4.000000e-02 +0.000000e+00 
+3.400000e-01 -4.000000e-02 +0.000000e+00 
+3.600000e-01 -6.000000e-02 +0.000000e+00 
+3.800000e-01 -6.000000e-02 +0.000000e+00 
+3.600000e-01 -4.000000e-02 +0.000000e+00 
+3.800000e-01 -4.000000e-02 +0.000000e+00 
+4.000000e-01 -6.000000e-02 +0.000000e+00 
+4.200000e-01 -6.000000e-02 +0.000000e+00 
+4.400000e-01 -6.000000e-02 +0.000000e+00 
+4.000000e-01 -4.000000e-02 +0.000000e+00 
+4.200000e-01 -4.000000e-02 +0.000000e+00 
+4.400000e-01 -4.000000e-02 +0.000000e+00 
+4.600000e-01 -6.000000e-02 +0.000000e+00 
+4.800000e-01 -6.000000e-02 +0.000000e+00 
+4.600000e-01 -4.000000e-02 +0.000000e+00 
+4.800000e-01 -4.000000e-02 +0.000000e+00 
+5.000000e-01 -6.000000e-02 +0.000000e+00 
+5.200000e-01 -6.000000e-02 +0.000000e+00 
+5.000000e-01 -4.000000e-02 +0.000000e+00 
+5.200000e-01 -4.000000e-02 +0.000000e+00 
+5.400000e-01 -6.000000e-02 +0.000000e+00 
+5.600000e-01 -6.000000e-02 +0.000000e+00 
+5.800000e-01 -6.000000e-02 +0.000000e+00 
+5.400000e-01 -4.000000e-02 +0.000000e+00 
+5.600000e-01 -4.000000e-02 +0.000000e+00 
+5.800000e-01 -4.000000e-02 +0.000000e+00 
+6.000000e-01 -6.000000e-02 +0.000000e+00 
+6.200000e-01 -6.000000e-02 +0.000000e+00 
+6.000000e-01 -4.000000e-02 +0.000000e+00 
+6.200000e-01 -4.000000e-02 +0.000000e+00 
+6.400000e-01 -6.000000e-02 +0.000000e+00 
+6.600000e-01 -6.000000e-02 +0.000000e+00 
+6.800000e-01 -6.000000e-02 +0.000000e+00 
+6.400000e-01 -4.000000e-02 +0.000000e+00 
+6.600000e-01 -4.000000e-02 +0.000000e+00 
+6.800000e-01 -4.000000e-02 +0.000000e+00 
+7.000000e-01 -6.000000e-02 +0.000000e+00 
+7.200000e-01 -6.000000e-02 +0.000000e+00 
+7.000000e-01 -4.000000e-02 +0.000000e+00 
+7.200000e-01 -4.000000e-02 +0.000000e+00 
+7.400000e-01 -6.000000e-02 +0.000000e+00 
+7.600000e-01 -6.000000e-02 +0.000000e+00 
+7.400000e-01 -4.000000e-02 +0.000000e+00 
+7.600000e-01 -4.000000e-02 +0.000000e+00 
+7.800000e-01 -6.000000e-02 +0.000000e+00 
+8.000000e-01 -6.000000e-02 +0.000000e+00 
+8.200000e-01 -6.000000e-02 +0.000000e+00 
+7.800000e-01 -4.000000e-02 +0.000000e+00 
+8.000000e-01 -4.000000e-02 +0.000000e+00 
+8.200000e-01 -4.000000e-02 +0.000000e+00 
+8.400000e-01 -6.000000e-02 +0.000000e+00 
+8.600000e-01 -6.000000e-02 +0.000000e+00 
+8.400000e-01 -4.000000e-02 +0.000000e+00 
+8.600000e-01 -4.000000e-02 +0.000000e+00 
+8.800000e-01 -6.000000e-02 +0.000000e+00 
+9.000000e-01 -6.000000e-02 +0.000000e+00 
+8.800000e-01 -4.000000e-02 +0.000000e+00 
+9.000000e-01 -4.000000e-02 +0.000000e+00 
+9.200000e-01 -6.000000e-02 +0.000000e+00 
+9.400000e-01 -6.000000e-02 +0.000000e+00 
+9.600000e-01 -6.000000e-02 +0.000000e+00 
+9.200000e-01 -4.000000e-02 +0.000000e+00 
+9.400000e-01 -4.000000e-02 +0.000000e+00 
+9.600000e-01 -4.000000e-02 +0.000000e+00 
+9.800000e-01 -6.000000e-02 +0.000000e+00 
+1.000000e+00 -6.000000e-02 +0.000000e+00 
+9.800000e-01 -4.000000e-02 +0.000000e+00 
+1.000000e+00 -4.000000e-02 +0.000000e+00 
+1.020000e+00 -6.000000e-02 +0.000000e+00 
+1.040000e+00 -6.000000e-02 +0.000000e+00 
+1.060000e+00 -6.000000e-02 +0.000000e+00 
+1.020000e+00 -4.000000e-02 +0.000000e+00 
+1.040000e+00 -4.000000e-02 +0.000000e+00 
+1.060000e+00 -4.000000e-02 +0.000000e+00 
+1.080000e+00 -6.000000e-02 +0.000000e+00 
+1.100000e+00 -6.000000e-02 +0.000000e+00 
+1.080000e+00 -4.000000e-02 +0.000000e+00 
+1.100000e+00 -4.000000e-02 +0.000000e+00 
+1.120000e+00 -6.000000e-02 +0.000000e+00 
+1.140000e+00 -6.000000e-02 +0.000000e+00 
+1.160000e+00 -6.000000e-02 +0.000000e+00 
+1.120000e+00 -4.000000e-02 +0.000000e+00 
+1.140000e+00 -4.000000e-02 +0.000000e+00 
+1.160000e+00 -4.000000e-02 +0.000000e+00 
+1.180000e+00 -6.000000e-02 +0.000000e+00 
+1.200000e+00 -6.000000e-02 +0.000000e+00 
+1.180000e+00 -4.000000e-02 +0.000000e+00 
+1.200000e+00 -4.000000e-02 +0.000000e+00 
+1.220000e+00 -6.000000e-02 +0.000000e+00 
+1.240000e+00 -6.000000e-02 +0.000000e+00 
+1.220000e+00 -4.000000e-02 +0.000000e+00 
+1.240000e+00 -4.000000e-02 +0.000000e+00 
+1.260000e+00 -6.000000e-02 +0.000000e+00 
+1.280000e+00 -6.000000e-02 +0.000000e+00 
+1.300000e+00 -6.000000e-02 +0.000000e+00 
+1.260000e+00 -4.000000e-02 +0.000000e+00 
+1.280000e+00 -4.000000e-02 +0.000000e+00 
+1.300000e+00 -4.000000e-02 +0.000000e+00 
+1.320000e+00 -6.000000e-02 +0.000000e+00 
+1.340000e+00 -6.000000e-02 +0.000000e+00 
+1.320000e+00 -4.000000e-02 +0.000000e+00 
+1.340000e+00 -4.000000e-02 +0.000000e+00 
+1.360000e+00 -6.000000e-02 +0.000000e+00 
+1.380000e+00 -6.000000e-02 +0.000000e+00 
+1.400000e+00 -6.000000e-02 +0.000000e+00 
+1.360000e+00 -4.000000e-02 +0.000000e+00 
+1.380000e+00 -4.000000e-02 +0.000000e+00 
+1.400000e+00 -4.000000e-02 +0.000000e+00 
+1.420000e+00 -6.000000e-02 +0.000000e+00 
+1.440000e+00 -6.000000e-02 +0.000000e+00 
+1.420000e+00 -4.000000e-02 +0.000000e+00 
+1.440000e+00 -4.000000e-02 +0.000000e+00 
+1.460000e+00 -6.000000e-02 +0.000000e+00 
+1.480000e+00 -6.000000e-02 +0.000000e+00 
+1.460000e+00 -4.000000e-02 +0.000000e+00 
+1.480000e+00 -4.000000e-02 +0.000000e+00 
+1.500000e+00 -6.000000e-02 +0.000000e+00 
+1.520000e+00 -6.000000e-02 +0.000000e+00 
+1.540000e+00 -6.000000e-02 +0.000000e+00 
+1.500000e+00 -4.000000e-02 +0.000000e+00 
+1.520000e+00 -4.000000e-02 +0.000000e+00 
+1.540000e+00 -4.000000e-02 +0.000000e+00 
+1.560000e+00 -6.000000e-02 +0.000000e+00 
+1.580000e+00 -6.000000e-02 +0.000000e+00 
+1.560000e+00 -4.000000e-02 +0.000000e+00 
+1.580000e+00 -4.000000e-02 +0.000000e+00 
+1.600000e+00 -6.000000e-02 +0.000000e+00 
+1.620000e+00 -6.000000e-02 +0.000000e+00 
+1.640000e+00 -6.000000e-02 +0.000000e+00 
+1.600000e+00 -4.000000e-02 +0.000000e+00 
+1.620000e+00 -4.000000e-02 +0.000000e+00 
+1.640000e+00 -4.000000e-02 +0.000000e+00 
+1.660000e+00 -6.000000e-02 +0.000000e+00 
+1.680000e+00 -6.000000e-02 +0.000000e+00 
+1.660000e+00 -4.000000e-02 +0.000000e+00 
+1.680000e+00 -4.000000e-02 +0.000000e+00 
+1.700000e+00 -6.000000e-02 +0.000000e+00 
+1.720000e+00 -6.000000e-02 +0.000000e+00 
+1.700000e+00 -4.000000e-02 +0.000000e+00 
+1.720000e+00 -4.000000e-02 +0.000000e+00 
+1.740000e+00 -6.000000e-02 +0.000000e+00 
+1.760000e+00 -6.000000e-02 +0.000000e+00 
+1.780000e+00 -6.000000e-02 +0.000000e+00 
+1.740000e+00 -4.000000e-02 +0.000000e+00 
+1.760000e+00 -4.000000e-02 +0.000000e+00 
+1.780000e+00 -4.000000e-02 +0.000000e+00 
+1.800000e+00 -6.000000e-02 +0.000000e+00 
+1.820000e+00 -6.000000e-02 +0.000000e+00 
+1.800000e+00 -4.000000e-02 +0.000000e+00 
+1.820000e+00 -4.000000e-02 +0.000000e+00 
+1.840000e+00 -6.000000e-02 +0.000000e+00 
+1.860000e+00 -6.000000e-02 +0.000000e+00 
+1.880000e+00 -6.000000e-02 +0.000000e+00 
+1.840000e+00 -4.000000e-02 +0.000000e+00 
+1.860000e+00 -4.000000e-02 +0.000000e+00 
+1.880000e+00 -4.000000e-02 +0.000000e+00 
+1.900000e+00 -6.000000e-02 +0.000000e+00 
+1.920000e+00 -6.000000e-02 +0.000000e+00 
+1.900000e+00 -4.000000e-02 +0.000000e+00 
+1.920000e+00 -4.000000e-02 +0.000000e+00 
+1.940000e+00 -6.000000e-02 +0.000000e+00 
+1.960000e+00 -6.000000e-02 +0.000000e+00 
+1.940000e+00 -4.000000e-02 +0.000000e+00 
+1.960000e+00 -4.000000e-02 +0.000000e+00 
+1.980000e+00 -6.000000e-02 +0.000000e+00 
+2.000000e+00 -6.000000e-02 +0.000000e+00 
+2.020000e+00 -6.000000e-02 +0.000000e+00 
+1.980000e+00 -4.000000e-02 +0.000000e+00 
+2.000000e+00 -4.000000e-02 +0.000000e+00 
+2.020000e+00 -4.000000e-02 +0.000000e+00 
+2.040000e+00 -6.000000e-02 +0.000000e+00 
+2.060000e+00 -6.000000e-02 +0.000000e+00 
+2.040000e+00 -4.000000e-02 +0.000000e+00 
+2.060000e+00 -4.000000e-02 +0.000000e+00 
+2.080000e+00 -6.000000e-02 +0.000000e+00 
+2.100000e+00 -6.000000e-02 +0.000000e+00 
+2.120000e+00 -6.000000e-02 +0.000000e+00 
+2.080000e+00 -4.000000e-02 +0.000000e+00 
+2.100000e+00 -4.000000e-02 +0.000000e+00 
+2.120000e+00 -4.000000e-02 +0.000000e+00 
+2.140000e+00 -6.000000e-02 +0.000000e+00 
+2.160000e+00 -6.000000e-02 +0.000000e+00 
+2.140000e+00 -4.000000e-02 +0.000000e+00 
+2.160000e+00 -4.000000e-02 +0.000000e+00 
+2.180000e+00 -6.000000e-02 +0.000000e+00 
+2.200000e+00 -6.000000e-02 +0.000000e+00 
+2.180000e+00 -4.000000e-02 +0.000000e+00 
+2.200000e+00 -4.000000e-02 +0.000000e+00 
+2.220000e+00 -6.000000e-02 +0.000000e+00 
+2.240000e+00 -6.000000e-02 +0.000000e+00 
[...]
POINT_DATA 6462 
SCALARS density float 1 
LOOKUP_TABLE default
+1.001950e+03 
+1.001956e+03 
+1.001947e+03 
+1.001955e+03 
+1.001966e+03 
+1.001976e+03 
+1.001970e+03 
+1.001985e+03 
+1.001984e+03 
+1.001987e+03 
+1.001994e+03 
+1.001996e+03 
+1.001987e+03 
+1.001986e+03 
+1.001985e+03 
+1.001994e+03 
+1.001991e+03 
+1.001990e+03 
+1.001987e+03 
+1.001989e+03 
+1.001991e+03 
+1.001996e+03 
+1.001991e+03 
+1.001990e+03 
+1.001987e+03 
+1.001999e+03 
+1.001997e+03 
+1.001994e+03 
+1.001981e+03 
+1.001973e+03 
+1.001987e+03 
+1.001977e+03 
+1.001965e+03 
+1.001960e+03 
+1.001967e+03 
+1.001961e+03 
+1.001958e+03 
+1.001957e+03 
+1.001955e+03 
+1.001959e+03 
+1.001961e+03 
+1.001956e+03 
+1.001954e+03 
+1.001951e+03 
+1.001958e+03 
+1.001951e+03 
+1.001949e+03 
+1.001948e+03 
+1.001942e+03 
+1.001946e+03 
+1.001953e+03 
+1.001948e+03 
+1.001933e+03 
+1.001925e+03 
+1.001925e+03 
+1.001930e+03 
+1.001917e+03 
+1.001916e+03 
+1.001906e+03 
+1.001909e+03 
+1.001922e+03 
+1.001927e+03 
+1.001924e+03 
+1.001924e+03 
+1.001932e+03 
+1.001932e+03 
+1.001915e+03 
+1.001905e+03 
+1.001914e+03 
+1.001901e+03 
+1.001899e+03 
+1.001900e+03 
+1.001904e+03 
+1.001898e+03 
+1.001893e+03 
+1.001915e+03 
+1.001905e+03 
+1.001903e+03 
+1.001909e+03 
+1.001905e+03 
+1.001902e+03 
+1.001902e+03 
+1.001906e+03 
+1.001916e+03 
+1.001896e+03 
+1.001886e+03 
+1.001879e+03 
+1.001907e+03 
+1.001891e+03 
+1.001882e+03 
+1.001878e+03 
+1.001882e+03 
+1.001887e+03 
+1.001887e+03 
+1.001892e+03 
+1.001905e+03 
+1.001899e+03 
+1.001924e+03 
+1.001914e+03 
+1.001916e+03 
+1.001913e+03 
+1.001937e+03 
+1.001934e+03 
+1.001926e+03 
+1.001913e+03 
+1.001926e+03 
+1.001917e+03 
+1.001933e+03 
+1.001938e+03 
+1.001936e+03 
+1.001940e+03 
+1.001984e+03 
+1.001933e+03 
+1.001946e+03 
+1.001951e+03 
+1.001953e+03 
+1.001974e+03 
+1.001966e+03 
+1.001952e+03 
+1.001960e+03 
+1.001974e+03 
+1.001949e+03 
+1.001960e+03 
+1.001976e+03 
+1.001990e+03 
+1.002001e+03 
+1.001996e+03 
+1.002007e+03 
+1.002007e+03 
+1.002006e+03 
+1.002015e+03 
+1.002006e+03 
+1.002000e+03 
+1.001990e+03 
+1.001970e+03 
+1.001997e+03 
+1.001998e+03 
+1.001964e+03 
+1.001951e+03 
+1.001941e+03 
+1.001933e+03 
+1.001932e+03 
+1.001931e+03 
+1.001921e+03 
+1.001918e+03 
+1.001926e+03 
+1.001897e+03 
+1.001910e+03 
+1.001913e+03 
+1.001898e+03 
+1.001913e+03 
+1.001892e+03 
+1.001878e+03 
+1.001871e+03 
+1.001850e+03 
+1.001843e+03 
+1.001873e+03 
+1.001862e+03 
+1.001831e+03 
+1.001874e+03 
+1.001874e+03 
+1.001825e+03 
+1.001791e+03 
+1.001768e+03 
+1.001772e+03 
+1.001723e+03 
+1.001779e+03 
+1.001803e+03 
+1.001807e+03 
+1.001758e+03 
+1.001818e+03 
+1.001830e+03 
+1.001788e+03 
+1.001771e+03 
+1.001781e+03 
+1.001746e+03 
+1.001772e+03 
+1.001781e+03 
+1.001767e+03 
+1.001782e+03 
+1.001791e+03 
+1.001796e+03 
+1.001794e+03 
+1.001799e+03 
+1.001809e+03 
+1.001800e+03 
+1.001789e+03 
+1.001790e+03 
+1.001790e+03 
+1.001791e+03 
+1.001798e+03 
+1.001809e+03 
+1.001818e+03 
+1.001801e+03 
+1.001822e+03 
+1.001821e+03 
+1.001826e+03 
+1.001827e+03 
+1.001842e+03 
+1.001842e+03 
+1.001820e+03 
+1.001821e+03 
+1.001819e+03 
+1.001813e+03 
+1.001825e+03 
+1.001818e+03 
+1.001795e+03 
+1.001841e+03 
+1.001843e+03 
+1.001793e+03 
+1.001772e+03 
+1.001759e+03 
+1.001770e+03 
+1.001730e+03 
+1.001758e+03 
+1.001741e+03 
+1.001725e+03 
+1.001784e+03 
+1.001738e+03 
+1.001689e+03 
+1.001734e+03 
+1.001750e+03 
+1.001710e+03 
+1.001790e+03 
+1.001733e+03 
+1.001709e+03 
+1.001716e+03 
+1.001710e+03 
+1.001683e+03 
+1.001673e+03 
+1.001664e+03 
+1.001648e+03 
+1.001670e+03 
+1.001659e+03 
+1.001643e+03 
+1.001611e+03 
+1.001646e+03 
+1.001586e+03 
+1.001589e+03 
+1.001585e+03 
+1.001582e+03 
+1.001551e+03 
+1.001563e+03 
+1.001574e+03 
+1.001572e+03 
+1.001563e+03 
+1.001539e+03 
+1.001510e+03 
+1.001559e+03 
+1.001538e+03 
+1.001541e+03 
+1.001536e+03 
+1.001489e+03 
+1.001432e+03 
+1.001373e+03 
+1.001453e+03 
+1.001402e+03 
+1.001324e+03 
+1.001335e+03 
+1.001318e+03 
+1.001286e+03 
+1.001284e+03 
+1.001314e+03 
+1.001315e+03 
+1.001314e+03 
+1.001293e+03 
+1.001308e+03 
+1.001269e+03 
+1.001329e+03 
+1.001311e+03 
+1.001366e+03 
+1.001316e+03 
+1.001280e+03 
+1.001274e+03 
+1.001234e+03 
+1.001275e+03 
+1.001283e+03 
+1.001302e+03 
+1.001319e+03 
+1.001266e+03 
+1.001313e+03 
+1.001327e+03 
+1.001330e+03 
+1.001330e+03 
+1.001349e+03 
+1.001345e+03 
+1.001326e+03 
+1.001323e+03 
+1.001296e+03 
+1.001311e+03 
+1.001369e+03 
+1.001284e+03 
+1.001266e+03 
+1.001242e+03 
+1.001275e+03 
+1.001207e+03 
+1.001240e+03 
+1.001241e+03 
+1.001242e+03 
+1.001240e+03 
+1.001243e+03 
+1.001249e+03 
+1.001249e+03 
+1.001233e+03 
+1.001252e+03 
+1.001288e+03 
+1.001216e+03 
+1.001173e+03 
+1.001208e+03 
+1.001182e+03 
+1.001141e+03 
+1.001121e+03 
+1.001113e+03 
+1.001110e+03 
+1.001122e+03 
+1.001094e+03 
+1.001109e+03 
+1.001105e+03 
+1.001127e+03 
+1.001092e+03 
+1.001116e+03 
+1.001138e+03 
+1.001105e+03 
+1.001178e+03 
+1.001145e+03 
+1.001156e+03 
+1.001162e+03 
+1.001140e+03 
+1.001169e+03 
+1.001220e+03 
+1.001145e+03 
+1.001130e+03 
+1.001163e+03 
+1.001112e+03 
+1.001131e+03 
+1.001107e+03 
+1.001091e+03 
+1.001218e+03 
+1.001110e+03 
+1.001132e+03 
+1.001073e+03 
+1.001057e+03 
+1.001106e+03 
+1.001078e+03 
+1.001044e+03 
+1.001019e+03 
+1.001123e+03 
+1.001000e+03 
+1.001037e+03 
+1.001074e+03 
+1.001079e+03 
+1.001024e+03 
+1.001167e+03 
+1.001102e+03 
+1.001076e+03 
+1.001071e+03 
+1.001096e+03 
+1.001102e+03 
+1.001061e+03 
+1.001058e+03 
+1.001059e+03 
+1.001068e+03 
+1.001069e+03 
+1.001114e+03 
+1.001045e+03 
+1.001035e+03 
+1.001058e+03 
+1.001029e+03 
+1.001034e+03 
+1.001008e+03 
+1.001106e+03 
+1.001033e+03 
+1.000979e+03 
+1.000975e+03 
+1.000990e+03 
+1.000969e+03 
+1.000996e+03 
+1.000995e+03 
+1.001004e+03 
+1.001010e+03 
+1.001080e+03 
+1.000985e+03 
+1.001038e+03 
+1.001064e+03 
+1.001018e+03 
+1.001064e+03 
+1.001168e+03 
+1.001061e+03 
+1.000956e+03 
+1.000943e+03 
+1.000931e+03 
+1.000920e+03 
+1.000945e+03 
+1.000905e+03 
+1.001047e+03 
+1.000900e+03 
+1.000880e+03 
+1.000888e+03 
+1.000921e+03 
+1.000854e+03 
+1.000896e+03 
+1.000877e+03 
+1.000987e+03 
+1.001063e+03 
+1.000983e+03 
+1.001111e+03 
+1.001101e+03 
+1.001110e+03 
+1.001130e+03 
+1.001126e+03 
+1.001093e+03 
+1.001108e+03 
+1.001158e+03 
+1.001166e+03 
+1.001192e+03 
+1.001089e+03 
+1.001202e+03 
+1.001216e+03 
+1.001210e+03 
+1.001202e+03 
+1.001215e+03 
+1.001179e+03 
+1.001153e+03 
+1.001228e+03 
+1.001177e+03 
+1.001114e+03 
+1.001161e+03 
+1.001184e+03 
+1.001167e+03 
+1.001212e+03 
+1.001208e+03 
+1.001231e+03 
+1.001242e+03 
+1.001289e+03 
+1.001253e+03 
+1.001285e+03 
+1.001319e+03 
+1.001286e+03 
+1.001353e+03 
+1.001389e+03 
+1.001343e+03 
+1.001358e+03 
+1.001388e+03 
+1.001514e+03 
+1.001329e+03 
+1.001286e+03 
+1.001299e+03 
+1.001406e+03 
+1.001291e+03 
+1.001400e+03 
+1.001316e+03 
+1.001327e+03 
+1.001374e+03 
+1.001418e+03 
+1.001329e+03 
+1.001344e+03 
+1.001361e+03 
+1.001373e+03 
+1.001409e+03 
+1.001434e+03 
+1.001359e+03 
+1.001386e+03 
+1.001358e+03 
+1.001398e+03 
+1.001415e+03 
+1.001408e+03 
+1.001489e+03 
+1.001423e+03 
+1.001400e+03 
+1.001426e+03 
+1.001441e+03 
+1.001358e+03 
+1.001440e+03 
+1.001454e+03 
+1.001430e+03 
+1.001378e+03 
+1.001474e+03 
+1.001371e+03 
+1.001344e+03 
+1.001343e+03 
+1.001295e+03 
+1.001350e+03 
+1.001365e+03 
+1.001428e+03 
+1.001496e+03 
+1.001311e+03 
+1.001414e+03 
+1.001546e+03 
+1.001529e+03 
+1.001562e+03 
+1.001529e+03 
+1.001515e+03 
+1.001641e+03 
+1.001752e+03 
+1.001892e+03 
+1.001618e+03 
+1.001746e+03 
+1.001893e+03 
+1.002043e+03 
+1.002154e+03 
+1.002103e+03 
+1.002245e+03 
+1.002209e+03 
+1.002253e+03 
+1.002313e+03 
+1.002251e+03 
+1.002269e+03 
+1.002326e+03 
+1.002386e+03 
+1.002437e+03 
+1.002443e+03 
+1.002471e+03 
+1.002479e+03 
+1.002511e+03 
+1.002510e+03 
+1.002589e+03 
+1.002498e+03 
+1.002465e+03 
+1.002468e+03 
+1.002547e+03 
+1.002444e+03 
+1.002435e+03 
+1.002518e+03 
+1.002593e+03 
+1.002496e+03 
+1.002616e+03 
+1.002654e+03 
+1.002692e+03 
+1.002717e+03 
+1.002685e+03 
+1.002712e+03 
+1.002734e+03 
+1.002738e+03 
+1.002762e+03 
+1.002754e+03 
+1.002748e+03 
+1.002804e+03 
+1.002859e+03 
+1.002801e+03 
+1.002865e+03 
+1.002911e+03 
+1.002940e+03 
+1.002941e+03 
+1.002929e+03 
+1.002963e+03 
+1.002932e+03 
+1.002933e+03 
+1.002932e+03 
+1.002907e+03 
+1.002901e+03 
+1.001938e+03 
+1.001951e+03 
+1.001920e+03 
+1.001936e+03 
+1.001981e+03 
+1.002009e+03 
+1.001977e+03 
+1.002003e+03 
+1.002016e+03 
+1.002017e+03 
+1.002007e+03 
+1.002011e+03 
+1.002008e+03 
+1.002001e+03 
+1.002001e+03 
+1.001997e+03 
+1.001986e+03 
+1.001997e+03 
+1.002006e+03 
+1.001979e+03 
+1.001972e+03 
+1.001976e+03 
+1.002014e+03 
+1.002009e+03 
+1.002006e+03 
+1.001982e+03 
+1.001981e+03 
+1.002004e+03 
+1.001981e+03 
+1.001982e+03 
+1.001958e+03 
+1.001948e+03 
+1.001969e+03 
+1.001954e+03 
+1.001926e+03 
+1.001960e+03 
+1.001955e+03 
+1.001982e+03 
+1.001948e+03 
+1.001906e+03 
+1.001946e+03 
+1.001967e+03 
+1.001961e+03 
+1.001938e+03 
+1.001942e+03 
+1.001947e+03 
+1.001979e+03 
+1.001963e+03 
+1.001973e+03 
+1.001883e+03 
+1.001886e+03 
+1.001995e+03 
+1.001902e+03 
+1.001916e+03 
+1.001903e+03 
+1.001865e+03 
+1.001908e+03 
+1.001961e+03 
+1.001913e+03 
+1.001943e+03 
+1.001938e+03 
+1.001933e+03 
+1.001927e+03 
+1.001878e+03 
+1.001935e+03 
+1.001884e+03 
+1.001867e+03 
+1.001899e+03 
+1.001893e+03 
+1.001875e+03 
+1.001934e+03 
+1.001897e+03 
+1.001868e+03 
+1.001909e+03 
+1.001924e+03 
+1.001906e+03 
+1.001895e+03 
+1.001889e+03 
+1.001963e+03 
+1.001891e+03 
+1.001900e+03 
+1.001907e+03 
+1.001891e+03 
+1.001892e+03 
+1.001895e+03 
+1.001946e+03 
+1.001932e+03 
+1.001883e+03 
+1.001921e+03 
+1.001944e+03 
+1.001936e+03 
+1.001955e+03 
+1.001958e+03 
+1.001935e+03 
+1.001950e+03 
+1.001968e+03 
+1.001963e+03 
+1.001990e+03 
+1.002006e+03 
+1.001901e+03 
+1.001958e+03 
+1.001968e+03 
+1.001921e+03 
+1.002128e+03 
+1.001933e+03 
+1.001936e+03 
+1.002029e+03 
+1.002008e+03 
+1.002018e+03 
+1.002020e+03 
+1.001993e+03 
+1.002004e+03 
+1.002013e+03 
+1.001907e+03 
+1.001997e+03 
+1.001954e+03 
+1.001992e+03 
+1.001999e+03 
+1.002032e+03 
+1.002003e+03 
+1.001961e+03 
+1.001988e+03 
+1.002029e+03 
+1.002026e+03 
+1.001983e+03 
+1.001971e+03 
+1.001974e+03 
+1.002011e+03 
+1.001951e+03 
+1.001910e+03 
+1.001885e+03 
+1.001869e+03 
+1.001908e+03 
+1.001920e+03 
+1.001821e+03 
+1.001952e+03 
+1.001842e+03 
+1.001894e+03 
+1.001839e+03 
+1.001778e+03 
+1.001868e+03 
+1.001916e+03 
+1.001896e+03 
+1.001760e+03 
+1.001756e+03 
+1.001833e+03 
+1.001855e+03 
+1.001772e+03 
+1.001892e+03 
+1.001839e+03 
+1.001833e+03 
+1.001821e+03 
+1.001661e+03 
+1.001743e+03 
+1.001599e+03 
+1.001856e+03 
+1.001760e+03 
+1.001739e+03 
+1.001893e+03 
+1.001866e+03 
+1.001848e+03 
+1.001732e+03 
+1.001723e+03 
+1.001672e+03 
+1.001779e+03 
+1.001866e+03 
+1.001828e+03 
+1.001782e+03 
+1.001763e+03 
+1.001790e+03 
+1.001815e+03 
+1.001852e+03 
+1.001799e+03 
+1.001758e+03 
+1.001758e+03 
+1.001810e+03 
+1.001711e+03 
+1.001834e+03 
+1.001769e+03 
+1.001857e+03 
+1.001845e+03 
+1.001828e+03 
+1.001772e+03 
+1.001870e+03 
+1.001852e+03 
+1.001909e+03 
+1.001745e+03 
+1.001766e+03 
+1.001846e+03 
+1.001774e+03 
+1.001749e+03 
+1.001857e+03 
+1.001900e+03 
+1.001710e+03 
+1.001812e+03 
+1.001708e+03 
+1.001829e+03 
+1.001592e+03 
+1.001826e+03 
+1.001730e+03 
+1.001934e+03 
+1.001644e+03 
+1.001708e+03 
+1.001645e+03 
+1.001987e+03 
+1.001569e+03 
+1.002062e+03 
+1.001694e+03 
+1.001501e+03 
+1.001436e+03 
+1.001909e+03 
+1.001770e+03 
+1.001618e+03 
+1.001492e+03 
+1.001611e+03 
+1.001653e+03 
+1.001593e+03 
+1.001549e+03 
+1.001681e+03 
+1.001523e+03 
+1.001476e+03 
+1.001397e+03 
+1.001465e+03 
+1.001600e+03 
+1.001465e+03 
+1.001692e+03 
+1.001237e+03 
+1.001483e+03 
+1.001455e+03 
+1.001593e+03 
+1.001529e+03 
+1.001567e+03 
+1.001136e+03 
+1.001362e+03 
+1.001182e+03 
+1.001219e+03 
+1.001533e+03 
+1.001093e+03 
+1.001178e+03 
+1.001270e+03 
+1.001258e+03 
+1.001214e+03 
+1.001177e+03 
+1.001224e+03 
+1.001167e+03 
+1.001533e+03 
+1.000944e+03 
+1.001452e+03 
+1.001307e+03 
+1.001609e+03 
+1.001299e+03 
+1.001276e+03 
+1.001273e+03 
+1.001234e+03 
+1.001031e+03 
+1.001283e+03 
+1.001318e+03 
+1.001108e+03 
+1.001191e+03 
+1.001416e+03 
+1.001292e+03 
+1.001456e+03 
+1.001268e+03 
+1.001406e+03 
+1.001357e+03 
+1.001408e+03 
+1.001331e+03 
+1.001376e+03 
+1.001213e+03 
+1.001617e+03 
+1.001162e+03 
+1.001175e+03 
+1.001344e+03 
+1.001427e+03 
+1.001044e+03 
+1.001271e+03 
+1.001199e+03 
+1.001323e+03 
+1.001216e+03 
+1.001163e+03 
+1.001291e+03 
+1.001280e+03 
+1.001134e+03 
+1.001512e+03 
+1.001164e+03 
+1.001137e+03 
+1.001043e+03 
+1.001101e+03 
+1.000828e+03 
+1.001207e+03 
+1.001115e+03 
+1.001116e+03 
+1.001096e+03 
+1.000971e+03 
+1.001070e+03 
+1.001182e+03 
+1.001063e+03 
+1.001290e+03 
+1.001177e+03 
+1.001068e+03 
+1.001356e+03 
+1.001187e+03 
+1.001146e+03 
+1.001080e+03 
+1.001244e+03 
+1.001259e+03 
+1.001315e+03 
+1.001150e+03 
+1.001255e+03 
+1.000986e+03 
+1.001212e+03 
+1.001174e+03 
+1.001621e+03 
+1.000890e+03 
+1.001328e+03 
+1.001143e+03 
+1.001187e+03 
+1.001227e+03 
+1.000977e+03 
+1.001097e+03 
+1.001379e+03 
+1.001425e+03 
+1.000677e+03 
+1.000877e+03 
+1.001170e+03 
+1.001148e+03 
+1.001458e+03 
+1.000967e+03 
+1.001105e+03 
+1.001078e+03 
+1.001197e+03 
+1.001167e+03 
+1.001049e+03 
+1.001102e+03 
+1.001151e+03 
+1.001045e+03 
+1.001175e+03 
+1.001194e+03 
+1.001095e+03 
+1.001055e+03 
+1.001062e+03 
+1.001060e+03 
+1.001284e+03 
+1.001005e+03 
+1.000960e+03 
+1.000960e+03 
+1.000879e+03 
+1.001066e+03 
+1.001024e+03 
+1.000911e+03 
+1.001205e+03 
+1.000733e+03 
+1.001185e+03 
+1.000977e+03 
+1.001185e+03 
+1.000957e+03 
+1.001698e+03 
+1.001051e+03 
+1.000815e+03 
+1.001121e+03 
+1.001137e+03 
+1.000703e+03 
+1.000979e+03 
+1.000857e+03 
+1.001032e+03 
+1.001470e+03 
+1.000574e+03 
+1.000941e+03 
+1.000959e+03 
+1.000920e+03 
+1.000934e+03 
+1.000903e+03 
+1.001048e+03 
+1.000984e+03 
+1.000836e+03 
+1.001222e+03 
+1.000667e+03 
+1.001158e+03 
+1.001235e+03 
+1.001060e+03 
+1.000889e+03 
+1.000965e+03 
+1.001305e+03 
+1.001681e+03 
+1.000442e+03 
+1.001004e+03 
+1.001140e+03 
+1.000588e+03 
+1.001721e+03 
+1.000802e+03 
+1.001151e+03 
+1.001119e+03 
+1.001698e+03 
+1.000957e+03 
+1.001002e+03 
+1.001091e+03 
+1.001075e+03 
+1.001218e+03 
+1.001308e+03 
+1.001238e+03 
+1.001292e+03 
+1.001279e+03 
+1.001492e+03 
+1.001577e+03 
+1.001185e+03 
+1.001265e+03 
+1.001318e+03 
+1.001786e+03 
+1.001820e+03 
+1.001449e+03 
+1.001409e+03 
+1.001607e+03 
+1.001688e+03 
+1.001930e+03 
+1.000910e+03 
+1.001711e+03 
+1.001564e+03 
+1.000848e+03 
+1.001414e+03 
+1.001807e+03 
+1.001749e+03 
+1.001205e+03 
+1.001270e+03 
+1.001424e+03 
+1.001924e+03 
+1.001508e+03 
+1.001397e+03 
+1.001057e+03 
+1.001471e+03 
+1.001076e+03 
+1.001409e+03 
+1.001599e+03 
+1.001771e+03 
+1.001433e+03 
+1.001393e+03 
+1.001547e+03 
+1.001090e+03 
+1.001707e+03 
+1.001186e+03 
+1.001034e+03 
+1.001534e+03 
+1.001927e+03 
+1.001109e+03 
+1.001428e+03 
+1.001547e+03 
+1.001311e+03 
+1.001464e+03 
+1.001538e+03 
+1.001122e+03 
+1.000985e+03 
+1.001538e+03 
+1.001717e+03 
+1.001652e+03 
+1.001329e+03 
+1.001591e+03 
+1.001188e+03 
+1.001665e+03 
+1.001937e+03 
+1.001792e+03 
+1.001685e+03 
+1.001791e+03 
+1.002026e+03 
+1.002351e+03 
+1.001921e+03 
+1.002267e+03 
+1.002552e+03 
+1.002314e+03 
+1.002305e+03 
+1.002197e+03 
+1.002403e+03 
+1.002174e+03 
+1.002887e+03 
+1.002644e+03 
+1.002848e+03 
+1.002459e+03 
+1.002468e+03 
+1.002909e+03 
+1.002441e+03 
+1.002883e+03 
+1.002461e+03 
+1.002709e+03 
+1.002254e+03 
+1.002371e+03 
+1.002697e+03 
+1.002781e+03 
+1.002382e+03 
+1.002735e+03 
+1.002684e+03 
+1.002513e+03 
+1.002707e+03 
+1.002756e+03 
+1.002771e+03 
+1.002778e+03 
+1.002711e+03 
+1.002729e+03 
+1.002799e+03 
+1.002699e+03 
+1.002893e+03 
+1.002879e+03 
+1.002821e+03 
+1.002857e+03 
+1.002865e+03 
+1.003054e+03 
+1.003016e+03 
+1.003050e+03 
+1.002897e+03 
+1.002661e+03 
+1.002720e+03 
+1.002842e+03 
+1.002841e+03 
+1.002745e+03 
+1.002764e+03 
+1.001889e+03 
+1.001905e+03 
+1.001846e+03 
+1.001862e+03 
+1.001964e+03 
+1.001941e+03 
+1.001896e+03 
+1.001916e+03 
+1.001940e+03 
+1.001977e+03 
+1.001860e+03 
+1.001927e+03 
+1.001965e+03 
+1.001863e+03 
+1.001951e+03 
+1.001909e+03 
+1.001888e+03 
+1.001934e+03 
+1.001927e+03 
+1.001878e+03 
+1.001925e+03 
+1.001868e+03 
+1.001870e+03 
+1.001941e+03 
+1.001926e+03 
+1.001877e+03 
+1.001869e+03 
+1.001788e+03 
+1.001805e+03 
+1.001929e+03 
+1.001890e+03 
+1.001951e+03 
+1.001912e+03 
+1.001811e+03 
+1.001824e+03 
+1.001935e+03 
+1.001911e+03 
+1.001878e+03 
+1.001829e+03 
+1.001838e+03 
+1.001766e+03 
+1.001881e+03 
+1.001776e+03 
+1.001929e+03 
+1.001809e+03 
+1.001839e+03 
+1.001759e+03 
+1.001807e+03 
+1.001854e+03 
+1.001793e+03 
+1.001928e+03 
+1.001894e+03 
+1.001772e+03 
+1.001745e+03 
+1.001838e+03 
+1.001906e+03 
+1.001852e+03 
+1.001930e+03 
+1.001744e+03 
+1.001719e+03 
+1.001761e+03 
+1.001841e+03 
+1.001921e+03 
+1.001769e+03 
+1.001873e+03 
+1.001856e+03 
+1.001799e+03 
+1.001871e+03 
+1.001818e+03 
+1.001752e+03 
+1.001697e+03 
+1.001868e+03 
+1.001776e+03 
+1.001827e+03 
+1.001761e+03 
+1.001885e+03 
+1.001848e+03 
+1.001883e+03 
+1.001737e+03 
+1.001758e+03 
+1.001829e+03 
+1.001876e+03 
+1.001728e+03 
+1.001818e+03 
+1.001766e+03 
+1.001796e+03 
+1.001793e+03 
+1.001871e+03 
+1.001714e+03 
+1.001797e+03 
+1.001843e+03 
+1.001794e+03 
+1.001740e+03 
+1.001840e+03 
+1.001779e+03 
+1.001814e+03 
+1.001871e+03 
+1.001774e+03 
+1.001802e+03 
+1.001746e+03 
+1.001863e+03 
+1.001789e+03 
+1.001854e+03 
+1.001782e+03 
+1.001822e+03 
+1.001722e+03 
+1.001732e+03 
+1.001811e+03 
+1.001845e+03 
+1.001752e+03 
+1.001849e+03 
+1.001892e+03 
+1.001847e+03 
+1.001762e+03 
+1.001896e+03 
+1.001799e+03 
+1.001853e+03 
+1.001918e+03 
+1.001789e+03 
+1.001867e+03 
+1.001917e+03 
+1.001789e+03 
+1.001844e+03 
+1.001869e+03 
+1.001901e+03 
+1.001851e+03 
+1.001914e+03 
+1.001919e+03 
+1.001765e+03 
+1.001785e+03 
+1.001810e+03 
+1.001868e+03 
+1.001836e+03 
+1.002043e+03 
+1.001810e+03 
+1.001939e+03 
+1.001989e+03 
+1.001864e+03 
+1.001878e+03 
+1.001859e+03 
+1.001966e+03 
+1.001867e+03 
+1.001842e+03 
+1.001845e+03 
+1.001925e+03 
+1.001820e+03 
+1.001893e+03 
+1.001956e+03 
+1.001735e+03 
+1.001834e+03 
+1.001907e+03 
+1.001898e+03 
+1.001964e+03 
+1.001814e+03 
+1.001792e+03 
+1.001869e+03 
+1.001818e+03 
+1.001929e+03 
+1.001897e+03 
+1.001984e+03 
+1.001793e+03 
+1.001893e+03 
+1.001875e+03 
+1.001781e+03 
+1.001823e+03 
+1.001901e+03 
+1.001760e+03 
+1.001803e+03 
+1.001896e+03 
+1.001805e+03 
+1.001720e+03 
+1.001828e+03 
+1.001807e+03 
+1.001687e+03 
+1.001889e+03 
+1.001733e+03 
+1.001784e+03 
+1.001826e+03 
+1.001728e+03 
+1.001839e+03 
+1.001812e+03 
+1.001688e+03 
+1.001794e+03 
+1.001743e+03 
+1.001701e+03 
+1.001770e+03 
+1.001763e+03 
+1.001630e+03 
+1.001771e+03 
+1.001656e+03 
+1.001799e+03 
+1.001770e+03 
+1.001689e+03 
+1.001807e+03 
+1.001588e+03 
+1.001725e+03 
+1.001762e+03 
+1.001602e+03 
+1.001708e+03 
+1.001695e+03 
+1.001713e+03 
+1.001754e+03 
+1.001787e+03 
+1.001629e+03 
+1.001665e+03 
+1.001664e+03 
+1.001708e+03 
+1.001726e+03 
+1.001617e+03 
+1.001750e+03 
+1.001673e+03 
+1.001648e+03 
+1.001744e+03 
+1.001666e+03 
+1.001670e+03 
+1.001631e+03 
+1.001688e+03 
+1.001704e+03 
+1.001621e+03 
+1.001711e+03 
+1.001795e+03 
+1.001620e+03 
+1.001642e+03 
+1.001737e+03 
+1.001662e+03 
+1.001726e+03 
+1.001823e+03 
+1.001611e+03 
+1.001680e+03 
+1.001653e+03 
+1.001702e+03 
+1.001717e+03 
+1.001772e+03 
+1.001601e+03 
+1.001668e+03 
+1.001781e+03 
+1.001687e+03 
+1.001677e+03 
+1.001770e+03 
+1.001636e+03 
+1.001750e+03 
+1.001756e+03 
+1.001613e+03 
+1.001655e+03 
+1.001764e+03 
+1.001644e+03 
+1.001621e+03 
+1.001672e+03 
+1.001636e+03 
+1.001732e+03 
+1.001690e+03 
+1.001621e+03 
+1.001756e+03 
+1.001614e+03 
+1.001667e+03 
+1.001781e+03 
+1.001677e+03 
+1.001651e+03 
+1.001728e+03 
+1.001822e+03 
+1.001579e+03 
+1.001690e+03 
+1.001684e+03 
+1.001752e+03 
+1.001591e+03 
+1.001687e+03 
+1.001682e+03 