# vtk DataFile Version 2.0
Unstructured Grid Example
ASCII
DATASET UNSTRUCTURED_GRID
POINTS 6462 float
-6.000000e-02 -6.000000e-02 +0.000000e+00 
-4.000000e-02 -6.000000e-02 +0.000000e+00 
-6.000000e-02 -4.000000e-02 +0.000000e+00 
-4.000000e-02 -4.000000e-02 +0.000000e+00 
-2.000000e-02 -6.000000e-02 +0.000000e+00 
+0.000000e+00 -6.000000e-02 +0.000000e+00 
-2.000000e-02 -4.000000e-02 +0.000000e+00 
+0.000000e+00 -4.000000e-02 +0.000000e+00 
+2.000000e-02 -6.000000e-02 +0.000000e+00 
+4.000000e-02 -6.000000e-02 +0.000000e+00 
+2.000000e-02 -4.000000e-02 +0.000000e+00 
+4.000000e-02 -4.000000e-02 +0.000000e+00 
+6.000000e-02 -6.000000e-02 +0.000000e+00 
+8.000000e-02 -6.000000e-02 +0.000000e+00 
+1.000000e-01 -6.000000e-02 +0.000000e+00 
+6.000000e-02 -4.000000e-02 +0.000000e+00 
+8.000000e-02 -4.000000e-02 +0.000000e+00 
+1.000000e-01 -4.000000e-02 +0.000000e+00 
+1.200000e-01 -6.000000e-02 +0.000000e+00 
+1.400000e-01 -6.000000e-02 +0.000000e+00 
+1.200000e-01 -4.000000e-02 +0.000000e+00 
+1.400000e-01 -4.000000e-02 +0.000000e+00 
+1.600000e-01 -6.000000e-02 +0.000000e+00 
+1.800000e-01 -6.000000e-02 +0.000000e+00 
+2.000000e-01 -6.000000e-02 +0.000000e+00 
+1.600000e-01 -4.000000e-02 +0.000000e+00 
+1.800000e-01 -4.000000e-02 +0.000000e+00 
+2.000000e-01 -4.000000e-02 +0.000000e+00 
+2.200000e-01 -6.000000e-02 +0.000000e+00 
+2.400000e-01 -6.000000e-02 +0.000000e+00 
+2.200000e-01 -4.000000e-02 +0.000000e+00 
+2.400000e-01 -4.000000e-02 +0.000000e+00 
+2.600000e-01 -6.000000e-02 +0.000000e+00 
+2.800000e-01 -6.000000e-02 +0.000000e+00 
+2.600000e-01 -4.000000e-02 +0.000000e+00 
+2.800000e-01 -4.000000e-02 +0.000000e+00 
+3.000000e-01 -6.000000e-02 +0.000000e+00 
+3.200000e-01 -6.000000e-02 +0.000000e+00 
+3.400000e-01 -6.000000e-02 +0.000000e+00 
+3.000000e-01 -4.000000e-02 +0.000000e+00 
+3.200000e-01 -4.000000e-02 +0.000000e+00 
+3.400000e-01 -4.000000e-02 +0.000000e+00 
+3.600000e-01 -6.000000e-02 +0.000000e+00 
+3.800000e-01 -6.000000e-02 +0.000000e+00 
+3.600000e-01 -4.000000e-02 +0.000000e+00 
+3.800000e-01 -4.000000e-02 +0.000000e+00 
+4.000000e-01 -6.000000e-02 +0.000000e+00 
+4.200000e-01 -6.000000e-02 +0.000000e+00 
+4.400000e-01 -6.000000e-02 +0.000000e+00 
+4.000000e-01 -4.000000e-02 +0.000000e+00 
+4.200000e-01 -4.000000e-02 +0.000000e+00 
+4.400000e-01 -4.000000e-02 +0.000000e+00 
+4.600000e-01 -6.000000e-02 +0.000000e+00 
+4.800000e-01 -6.000000e-02 +0.000000e+00 
+4.600000e-01 -4.000000e-02 +0.000000e+00 
+4.800000e-01 -4.000000e-02 +0.000000e+00 
+5.000000e-01 -6.000000e-02 +0.000000e+00 
+5.200000e-01 -6.000000e-02 +0.000000e+00 
+5.000000e-01 -4.000000e-02 +0.000000e+00 
+5.200000e-01 -4.000000e-02 +0.000000e+00 
+5.400000e-01 -6.000000e-02 +0.000000e+00 
+5.600000e-01 -6.000000e-02 +0.000000e+00 
+5.800000e-01 -6.000000e-02 +0.000000e+00 
+5.400000e-01 -4.000000e-02 +0.000000e+00 
+5.600000e-01 -4.000000e-02 +0.000000e+00 
+5.800000e-01 -4.000000e-02 +0.000000e+00 
+6.000000e-01 -6.000000e-02 +0.000000e+00 
+6.200000e-01 -6.000000e-02 +0.000000e+00 
+6.000000e-01 -4.000000e-02 +0.000000e+00 
+6.200000e-01 -4.000000e-02 +0.000000e+00 
+6.400000e-01 -6.000000e-02 +0.000000e+00 
+6.600000e-01 -6.000000e-02 +0.000000e+00 
+6.800000e-01 -6.000000e-02 +0.000000e+00 
+6.400000e-01 -4.000000e-02 +0.000000e+00 
+6.600000e-01 -4.000000e-02 +0.000000e+00 
+6.800000e-01 -4.000000e-02 +0.000000e+00 
+7.000000e-01 -6.000000e-02 +0.000000e+00 
+7.200000e-01 -6.000000e-02 +0.000000e+00 
+7.000000e-01 -4.000000e-02 +0.000000e+00 
+7.200000e-01 -4.000000e-02 +0.000000e+00 
+7.400000e-01 -6.000000e-02 +0.000000e+00 
+7.600000e-01 -6.000000e-02 +0.000000e+00 
+7.400000e-01 -4.000000e-02 +0.000000e+00 
+7.600000e-01 -4.000000e-02 +0.000000e+00 
+7.800000e-01 -6.000000e-02 +0.000000e+00 
+8.000000e-01 -6.000000e-02 +0.000000e+00 
+8.200000e-01 -6.000000e-02 +0.000000e+00 
+7.800000e-01 -4.000000e-02 +0.000000e+00 
+8.000000e-01 -4.000000e-02 +0.000000e+00 
+8.200000e-01 -4.000000e-02 +0.000000e+00 
+8.400000e-01 -6.000000e-02 +0.000000e+00 
+8.600000e-01 -6.000000e-02 +0.000000e+00 
+8.400000e-01 -4.000000e-02 +0.000000e+00 
+8.600000e-01 -4.000000e-02 +0.000000e+00 
+8.800000e-01 -6.000000e-02 +0.000000e+00 
+9.000000e-01 -6.000000e-02 +0.000000e+00 
+8.800000e-01 -4.000000e-02 +0.000000e+00 
+9.000000e-01 -4.000000e-02 +0.000000e+00 
+9.200000e-01 -6.000000e-02 +0.000000e+00 
+9.400000e-01 -6.000000e-02 +0.000000e+00 
+9.600000e-01 -6.000000e-02 +0.000000e+00 
+9.200000e-01 -4.000000e-02 +0.000000e+00 
+9.400000e-01 -4.000000e-02 +0.000000e+00 
+9.600000e-01 -4.000000e-02 +0.000000e+00 
+9.800000e-01 -6.000000e-02 +0.000000e+00 
+1.000000e+00 -6.000000e-02 +0.000000e+00 
+9.800000e-01 -4.000000e-02 +0.000000e+00 
+1.000000e+00 -4.000000e-02 +0.000000e+00 
+1.020000e+00 -6.000000e-02 +0.000000e+00 
+1.040000e+00 -6.000000e-02 +0.000000e+00 
+1.060000e+00 -6.000000e-02 +0.000000e+00 
+1.020000e+00 -4.000000e-02 +0.000000e+00 
+1.040000e+00 -4.000000e-02 +0.000000e+00 
+1.060000e+00 -4.000000e-02 +0.000000e+00 
+1.080000e+00 -6.000000e-02 +0.000000e+00 
+1.100000e+00 -6.000000e-02 +0.000000e+00 
+1.080000e+00 -4.000000e-02 +0.000000e+00 
+1.100000e+00 -4.000000e-02 +0.000000e+00 
+1.120000e+00 -6.000000e-02 +0.000000e+00 
+1.140000e+00 -6.000000e-02 +0.000000e+00 
+1.160000e+00 -6.000000e-02 +0.000000e+00 
+1.120000e+00 -4.000000e-02 +0.000000e+00 
+1.140000e+00 -4.000000e-02 +0.000000e+00 
+1.160000e+00 -4.000000e-02 +0.000000e+00 
+1.180000e+00 -6.000000e-02 +0.000000e+00 
+1.200000e+00 -6.000000e-02 +0.000000e+00 
+1.180000e+00 -4.000000e-02 +0.000000e+00 
+1.200000e+00 -4.000000e-02 +0.000000e+00 
+1.220000e+00 -6.000000e-02 +0.000000e+00 
+1.240000e+00 -6.000000e-02 +0.000000e+00 
+1.220000e+00 -4.000000e-02 +0.000000e+00 
+1.240000e+00 -4.000000e-02 +0.000000e+00 
+1.260000e+00 -6.000000e-02 +0.000000e+00 
+1.280000e+00 -6.000000e-02 +0.000000e+00 
+1.300000e+00 -6.000000e-02 +0.000000e+00 
+1.260000e+00 -4.000000e-02 +0.000000e+00 
+1.280000e+00 -4.000000e-02 +0.000000e+00 
+1.300000e+00 -4.000000e-02 +0.000000e+00 
+1.320000e+00 -6.000000e-02 +0.000000e+00 
+1.340000e+00 -6.000000e-02 +0.000000e+00 
+1.320000e+00 -4.000000e-02 +0.000000e+00 
+1.340000e+00 -4.000000e-02 +0.000000e+00 
+1.360000e+00 -6.000000e-02 +0.000000e+00 
+1.380000e+00 -6.000000e-02 +0.000000e+00 
+1.400000e+00 -6.000000e-02 +0.000000e+00 
+1.360000e+00 -4.000000e-02 +0.000000e+00 
+1.380000e+00 -4.000000e-02 +0.000000e+00 
+1.400000e+00 -4.000000e-02 +0.000000e+00 
+1.420000e+00 -6.000000e-02 +0.000000e+00 
+1.440000e+00 -6.000000e-02 +0.000000e+00 
+1.420000e+00 -4.000000e-02 +0.000000e+00 
+1.440000e+00 -4.000000e-02 +0.000000e+00 
+1.460000e+00 -6.000000e-02 +0.000000e+00 
+1.480000e+00 -6.000000e-02 +0.000000e+00 
+1.460000e+00 -4.000000e-02 +0.000000e+00 
+1.480000e+00 -4.000000e-02 +0.000000e+00 
+1.500000e+00 -6.000000e-02 +0.000000e+00 
+1.520000e+00 -6.000000e-02 +0.000000e+00 
+1.540000e+00 -6.000000e-02 +0.000000e+00 
+1.500000e+00 -4.000000e-02 +0.000000e+00 
+1.520000e+00 -4.000000e-02 +0.000000e+00 
+1.540000e+00 -4.000000e-02 +0.000000e+00 
+1.560000e+00 -6.000000e-02 +0.000000e+00 
+1.580000e+00 -6.000000e-02 +0.000000e+00 
+1.560000e+00 -4.000000e-02 +0.000000e+00 
+1.580000e+00 -4.000000e-02 +0.000000e+00 
+1.600000e+00 -6.000000e-02 +0.000000e+00 
+1.620000e+00 -6.000000e-02 +0.000000e+00 
+1.640000e+00 -6.000000e-02 +0.000000e+00 
+1.600000e+00 -4.000000e-02 +0.000000e+00 
+1.620000e+00 -4.000000e-02 +0.000000e+00 
+1.640000e+00 -4.000000e-02 +0.000000e+00 
+1.660000e+00 -6.000000e-02 +0.000000e+00 
+1.680000e+00 -6.000000e-02 +0.000000e+00 
+1.660000e+00 -4.000000e-02 +0.000000e+00 
+1.680000e+00 -4.000000e-02 +0.000000e+00 
+1.700000e+00 -6.000000e-02 +0.000000e+00 
+1.720000e+00 -6.000000e-02 +0.000000e+00 
+1.700000e+00 -4.000000e-02 +0.000000e+00 
+1.720000e+00 -4.000000e-02 +0.000000e+00 
+1.740000e+00 -6.000000e-02 +0.000000e+00 
+1.760000e+00 -6.000000e-02 +0.000000e+00 
+1.780000e+00 -6.000000e-02 +0.000000e+00 
+1.740000e+00 -4.000000e-02 +0.000000e+00 
+1.760000e+00 -4.000000e-02 +0.000000e+00 
+1.780000e+00 -4.000000e-02 +0.000000e+00 
+1.800000e+00 -6.000000e-02 +0.000000e+00 
+1.820000e+00 -6.000000e-02 +0.000000e+00 
+1.800000e+00 -4.000000e-02 +0.000000e+00 
+1.820000e+00 -4.000000e-02 +0.000000e+00 
+1.840000e+00 -6.000000e-02 +0.000000e+00 
+1.860000e+00 -6.000000e-02 +0.000000e+00 
+1.880000e+00 -6.000000e-02 +0.000000e+00 
+1.840000e+00 -4.000000e-02 +0.000000e+00 
+1.860000e+00 -4.000000e-02 +0.000000e+00 
+1.880000e+00 -4.000000e-02 +0.000000e+00 
+1.900000e+00 -6.000000e-02 +0.000000e+00 
+1.920000e+00 -6.000000e-02 +0.000000e+00 
+1.900000e+00 -4.000000e-02 +0.000000e+00 
+1.920000e+00 -4.000000e-02 +0.000000e+00 
+1.940000e+00 -6.000000e-02 +0.000000e+00 
+1.960000e+00 -6.000000e-02 +0.000000e+00 
+1.940000e+00 -4.000000e-02 +0.000000e+00 
+1.960000e+00 -4.000000e-02 +0.000000e+00 
+1.980000e+00 -6.000000e-02 +0.000000e+00 
+2.000000e+00 -6.000000e-02 +0.000000e+00 
+2.020000e+00 -6.000000e-02 +0.000000e+00 
+1.980000e+00 -4.000000e-02 +0.000000e+00 
+2.000000e+00 -4.000000e-02 +0.000000e+00 
+2.020000e+00 -4.000000e-02 +0.000000e+00 
+2.040000e+00 -6.000000e-02 +0.000000e+00 
+2.060000e+00 -6.000000e-02 +0.000000e+00 
+2.040000e+00 -4.000000e-02 +0.000000e+00 
+2.060000e+00 -4.000000e-02 +0.000000e+00 
+2.080000e+00 -6.000000e-02 +0.000000e+00 
+2.100000e+00 -6.000000e-02 +0.000000e+00 
+2.120000e+00 -6.000000e-02 +0.000000e+00 
+2.080000e+00 -4.000000e-02 +0.000000e+00 
+2.100000e+00 -4.000000e-02 +0.000000e+00 
+2.120000e+00 -4.000000e-02 +0.000000e+00 
+2.140000e+00 -6.000000e-02 +0.000000e+00 
+2.160000e+00 -6.000000e-02 +0.000000e+00 
+2.140000e+00 -4.000000e-02 +0.000000e+00 
+2.160000e+00 -4.000000e-02 +0.000000e+00 
+2.180000e+00 -6.000000e-02 +0.000000e+00 
+2.200000e+00 -6.000000e-02 +0.000000e+00 
+2.180000e+00 -4.000000e-02 +0.000000e+00 
+2.200000e+00 -4.000000e-02 +0.000000e+00 
+2.220000e+00 -6.000000e-02 +0.000000e+00 
+2.240000e+00 -6.000000e-02 +0.000000e+00 
[...]
POINT_DATA 6462 
SCALARS density float 1 
LOOKUP_TABLE default
+1.002341e+03 
+1.002334e+03 
+1.002325e+03 
+1.002318e+03 
+1.002327e+03 
+1.002322e+03 
+1.002310e+03 
+1.002306e+03 
+1.002321e+03 
+1.002321e+03 
+1.002308e+03 
+1.002311e+03 
+1.002319e+03 
+1.002315e+03 
+1.002309e+03 
+1.002310e+03 
+1.002306e+03 
+1.002298e+03 
+1.002301e+03 
+1.002294e+03 
+1.002289e+03 
+1.002281e+03 
+1.002289e+03 
+1.002288e+03 
+1.002294e+03 
+1.002274e+03 
+1.002270e+03 
+1.002271e+03 
+1.002309e+03 
+1.002323e+03 
+1.002294e+03 
+1.002334e+03 
+1.002320e+03 
+1.002309e+03 
+1.002310e+03 
+1.002290e+03 
+1.002301e+03 
+1.002296e+03 
+1.002288e+03 
+1.002284e+03 
+1.002283e+03 
+1.002276e+03 
+1.002278e+03 
+1.002275e+03 
+1.002255e+03 
+1.002250e+03 
+1.002281e+03 
+1.002288e+03 
+1.002292e+03 
+1.002265e+03 
+1.002272e+03 
+1.002280e+03 
+1.002292e+03 
+1.002287e+03 
+1.002279e+03 
+1.002272e+03 
+1.002282e+03 
+1.002280e+03 
+1.002260e+03 
+1.002262e+03 
+1.002279e+03 
+1.002274e+03 
+1.002269e+03 
+1.002264e+03 
+1.002261e+03 
+1.002252e+03 
+1.002262e+03 
+1.002252e+03 
+1.002251e+03 
+1.002242e+03 
+1.002235e+03 
+1.002215e+03 
+1.002203e+03 
+1.002229e+03 
+1.002193e+03 
+1.002189e+03 
+1.002197e+03 
+1.002195e+03 
+1.002183e+03 
+1.002185e+03 
+1.002193e+03 
+1.002194e+03 
+1.002183e+03 
+1.002186e+03 
+1.002194e+03 
+1.002192e+03 
+1.002181e+03 
+1.002186e+03 
+1.002195e+03 
+1.002182e+03 
+1.002165e+03 
+1.002156e+03 
+1.002152e+03 
+1.002140e+03 
+1.002156e+03 
+1.002152e+03 
+1.002158e+03 
+1.002158e+03 
+1.002141e+03 
+1.002128e+03 
+1.002118e+03 
+1.002137e+03 
+1.002124e+03 
+1.002123e+03 
+1.002109e+03 
+1.002106e+03 
+1.002099e+03 
+1.002104e+03 
+1.002108e+03 
+1.002117e+03 
+1.002122e+03 
+1.002098e+03 
+1.002125e+03 
+1.002115e+03 
+1.002124e+03 
+1.002109e+03 
+1.002144e+03 
+1.002121e+03 
+1.002084e+03 
+1.002076e+03 
+1.002073e+03 
+1.002057e+03 
+1.002076e+03 
+1.002076e+03 
+1.002068e+03 
+1.002068e+03 
+1.002060e+03 
+1.002065e+03 
+1.002070e+03 
+1.002072e+03 
+1.002071e+03 
+1.002074e+03 
+1.002068e+03 
+1.002055e+03 
+1.002041e+03 
+1.002081e+03 
+1.002056e+03 
+1.002037e+03 
+1.002030e+03 
+1.002015e+03 
+1.002040e+03 
+1.002021e+03 
+1.002000e+03 
+1.001998e+03 
+1.002004e+03 
+1.001987e+03 
+1.001990e+03 
+1.002023e+03 
+1.001993e+03 
+1.001959e+03 
+1.002029e+03 
+1.001952e+03 
+1.001934e+03 
+1.001933e+03 
+1.001913e+03 
+1.001928e+03 
+1.001947e+03 
+1.001960e+03 
+1.001966e+03 
+1.001958e+03 
+1.001966e+03 
+1.001992e+03 
+1.001960e+03 
+1.001948e+03 
+1.001974e+03 
+1.001954e+03 
+1.001939e+03 
+1.001938e+03 
+1.001936e+03 
+1.001941e+03 
+1.001947e+03 
+1.001953e+03 
+1.001932e+03 
+1.001928e+03 
+1.001943e+03 
+1.001939e+03 
+1.001922e+03 
+1.001907e+03 
+1.001951e+03 
+1.001921e+03 
+1.001891e+03 
+1.001881e+03 
+1.001889e+03 
+1.001899e+03 
+1.001863e+03 
+1.001932e+03 
+1.001871e+03 
+1.001833e+03 
+1.001909e+03 
+1.001814e+03 
+1.001814e+03 
+1.001808e+03 
+1.001796e+03 
+1.001809e+03 
+1.001830e+03 
+1.001805e+03 
+1.001786e+03 
+1.001783e+03 
+1.001784e+03 
+1.001788e+03 
+1.001780e+03 
+1.001766e+03 
+1.001818e+03 
+1.001761e+03 
+1.001761e+03 
+1.001762e+03 
+1.001749e+03 
+1.001764e+03 
+1.001795e+03 
+1.001765e+03 
+1.001732e+03 
+1.001717e+03 
+1.001736e+03 
+1.001732e+03 
+1.001714e+03 
+1.001732e+03 
+1.001727e+03 
+1.001682e+03 
+1.001766e+03 
+1.001774e+03 
+1.001689e+03 
+1.001655e+03 
+1.001678e+03 
+1.001634e+03 
+1.001647e+03 
+1.001658e+03 
+1.001622e+03 
+1.001651e+03 
+1.001668e+03 
+1.001660e+03 
+1.001665e+03 
+1.001692e+03 
+1.001626e+03 
+1.001646e+03 
+1.001686e+03 
+1.001720e+03 
+1.001656e+03 
+1.001696e+03 
+1.001751e+03 
+1.001732e+03 
+1.001690e+03 
+1.001805e+03 
+1.001754e+03 
+1.001630e+03 
+1.001687e+03 
+1.001721e+03 
+1.001658e+03 
+1.001709e+03 
+1.001756e+03 
+1.001777e+03 
+1.001776e+03 
+1.001750e+03 
+1.001785e+03 
+1.001745e+03 
+1.001708e+03 
+1.001867e+03 
+1.001705e+03 
+1.001720e+03 
+1.001664e+03 
+1.001615e+03 
+1.001679e+03 
+1.001568e+03 
+1.001592e+03 
+1.001563e+03 
+1.001501e+03 
+1.001590e+03 
+1.001609e+03 
+1.001476e+03 
+1.001455e+03 
+1.001432e+03 
+1.001432e+03 
+1.001442e+03 
+1.001413e+03 
+1.001402e+03 
+1.001418e+03 
+1.001406e+03 
+1.001400e+03 
+1.001395e+03 
+1.001400e+03 
+1.001431e+03 
+1.001411e+03 
+1.001436e+03 
+1.001406e+03 
+1.001419e+03 
+1.001428e+03 
+1.001413e+03 
+1.001447e+03 
+1.001447e+03 
+1.001421e+03 
+1.001510e+03 
+1.001500e+03 
+1.001421e+03 
+1.001406e+03 
+1.001411e+03 
+1.001398e+03 
+1.001410e+03 
+1.001426e+03 
+1.001453e+03 
+1.001403e+03 
+1.001492e+03 
+1.001456e+03 
+1.001435e+03 
+1.001415e+03 
+1.001477e+03 
+1.001409e+03 
+1.001414e+03 
+1.001380e+03 
+1.001317e+03 
+1.001385e+03 
+1.001315e+03 
+1.001226e+03 
+1.001155e+03 
+1.001111e+03 
+1.001162e+03 
+1.001086e+03 
+1.001019e+03 
+1.001118e+03 
+1.001130e+03 
+1.001045e+03 
+1.001136e+03 
+1.001101e+03 
+1.001038e+03 
+1.001085e+03 
+1.000987e+03 
+1.001000e+03 
+1.001014e+03 
+1.001088e+03 
+1.000916e+03 
+1.000875e+03 
+1.001176e+03 
+1.001086e+03 
+1.001079e+03 
+1.001036e+03 
+1.001081e+03 
+1.001065e+03 
+1.001051e+03 
+1.001050e+03 
+1.001057e+03 
+1.001035e+03 
+1.001029e+03 
+1.001068e+03 
+1.001106e+03 
+1.001058e+03 
+1.001126e+03 
+1.001146e+03 
+1.001171e+03 
+1.001150e+03 
+1.001244e+03 
+1.001173e+03 
+1.001217e+03 
+1.001278e+03 
+1.001112e+03 
+1.001223e+03 
+1.001341e+03 
+1.001284e+03 
+1.001254e+03 
+1.001329e+03 
+1.001269e+03 
+1.001220e+03 
+1.001212e+03 
+1.001208e+03 
+1.001197e+03 
+1.001230e+03 
+1.001188e+03 
+1.001222e+03 
+1.001234e+03 
+1.001231e+03 
+1.001251e+03 
+1.001232e+03 
+1.001232e+03 
+1.001217e+03 
+1.001269e+03 
+1.001225e+03 
+1.001205e+03 
+1.001196e+03 
+1.001241e+03 
+1.001216e+03 
+1.001132e+03 
+1.001233e+03 
+1.001255e+03 
+1.001257e+03 
+1.001240e+03 
+1.001256e+03 
+1.001232e+03 
+1.001191e+03 
+1.001266e+03 
+1.001216e+03 
+1.001178e+03 
+1.001151e+03 
+1.001086e+03 
+1.001155e+03 
+1.001058e+03 
+1.001034e+03 
+1.001026e+03 
+1.000974e+03 
+1.000978e+03 
+1.001046e+03 
+1.001069e+03 
+1.001076e+03 
+1.001019e+03 
+1.001079e+03 
+1.001091e+03 
+1.001060e+03 
+1.001034e+03 
+1.001078e+03 
+1.001042e+03 
+1.001011e+03 
+1.001002e+03 
+1.000988e+03 
+1.001011e+03 
+1.001020e+03 
+1.001001e+03 
+1.000979e+03 
+1.000979e+03 
+1.000988e+03 
+1.000985e+03 
+1.000975e+03 
+1.000977e+03 
+1.000988e+03 
+1.000963e+03 
+1.000986e+03 
+1.001011e+03 
+1.001087e+03 
+1.001021e+03 
+1.000982e+03 
+1.001077e+03 
+1.001192e+03 
+1.001257e+03 
+1.001291e+03 
+1.001335e+03 
+1.001288e+03 
+1.001330e+03 
+1.001311e+03 
+1.001342e+03 
+1.001394e+03 
+1.001432e+03 
+1.001422e+03 
+1.001464e+03 
+1.001533e+03 
+1.001490e+03 
+1.001392e+03 
+1.001397e+03 
+1.001378e+03 
+1.001518e+03 
+1.001344e+03 
+1.001274e+03 
+1.001289e+03 
+1.001408e+03 
+1.001171e+03 
+1.001315e+03 
+1.001313e+03 
+1.001325e+03 
+1.001344e+03 
+1.001314e+03 
+1.001341e+03 
+1.001352e+03 
+1.001376e+03 
+1.001349e+03 
+1.001329e+03 
+1.001315e+03 
+1.001401e+03 
+1.001368e+03 
+1.001429e+03 
+1.001405e+03 
+1.001255e+03 
+1.001167e+03 
+1.001140e+03 
+1.001128e+03 
+1.001054e+03 
+1.000962e+03 
+1.000981e+03 
+1.000998e+03 
+1.000787e+03 
+1.000915e+03 
+1.001004e+03 
+1.000932e+03 
+1.001097e+03 
+1.000915e+03 
+1.000853e+03 
+1.000880e+03 
+1.000733e+03 
+1.000776e+03 
+1.000974e+03 
+1.001060e+03 
+1.001098e+03 
+1.000946e+03 
+1.001049e+03 
+1.001046e+03 
+1.001104e+03 
+1.001060e+03 
+1.001076e+03 
+1.001001e+03 
+1.001011e+03 
+1.000985e+03 
+1.001035e+03 
+1.000915e+03 
+1.000843e+03 
+1.000915e+03 
+1.001116e+03 
+1.001183e+03 
+1.001045e+03 
+1.001111e+03 
+1.001232e+03 
+1.001264e+03 
+1.001323e+03 
+1.001176e+03 
+1.001184e+03 
+1.001232e+03 
+1.001430e+03 
+1.001542e+03 
+1.001394e+03 
+1.001586e+03 
+1.001597e+03 
+1.001626e+03 
+1.001629e+03 
+1.001605e+03 
+1.001670e+03 
+1.001758e+03 
+1.001875e+03 
+1.001626e+03 
+1.001707e+03 
+1.001877e+03 
+1.001967e+03 
+1.002016e+03 
+1.001994e+03 
+1.001968e+03 
+1.002081e+03 
+1.002191e+03 
+1.002314e+03 
+1.001991e+03 
+1.002131e+03 
+1.002275e+03 
+1.002417e+03 
+1.002503e+03 
+1.002363e+03 
+1.002439e+03 
+1.002577e+03 
+1.002652e+03 
+1.002495e+03 
+1.002577e+03 
+1.002721e+03 
+1.002773e+03 
+1.002814e+03 
+1.002660e+03 
+1.002708e+03 
+1.002742e+03 
+1.002851e+03 
+1.002881e+03 
+1.002792e+03 
+1.002830e+03 
+1.002300e+03 
+1.002291e+03 
+1.002266e+03 
+1.002257e+03 
+1.002276e+03 
+1.002270e+03 
+1.002241e+03 
+1.002254e+03 
+1.002288e+03 
+1.002295e+03 
+1.002272e+03 
+1.002275e+03 
+1.002294e+03 
+1.002291e+03 
+1.002280e+03 
+1.002272e+03 
+1.002265e+03 
+1.002268e+03 
+1.002258e+03 
+1.002256e+03 
+1.002250e+03 
+1.002247e+03 
+1.002253e+03 
+1.002240e+03 
+1.002231e+03 
+1.002252e+03 
+1.002236e+03 
+1.002227e+03 
+1.002363e+03 
+1.002167e+03 
+1.002246e+03 
+1.002187e+03 
+1.002270e+03 
+1.002263e+03 
+1.002232e+03 
+1.002231e+03 
+1.002252e+03 
+1.002244e+03 
+1.002253e+03 
+1.002270e+03 
+1.002220e+03 
+1.002215e+03 
+1.002177e+03 
+1.002177e+03 
+1.002220e+03 
+1.002279e+03 
+1.002265e+03 
+1.002260e+03 
+1.002178e+03 
+1.002258e+03 
+1.002198e+03 
+1.002252e+03 
+1.002233e+03 
+1.002191e+03 
+1.002199e+03 
+1.002211e+03 
+1.002239e+03 
+1.002201e+03 
+1.002170e+03 
+1.002254e+03 
+1.002216e+03 
+1.002195e+03 
+1.002164e+03 
+1.002187e+03 
+1.002241e+03 
+1.002244e+03 
+1.002149e+03 
+1.002174e+03 
+1.002120e+03 
+1.002244e+03 
+1.002090e+03 
+1.002198e+03 
+1.002157e+03 
+1.002176e+03 
+1.002140e+03 
+1.002185e+03 
+1.002120e+03 
+1.002178e+03 
+1.002148e+03 
+1.002169e+03 
+1.002161e+03 
+1.002175e+03 
+1.002190e+03 
+1.002203e+03 
+1.002164e+03 
+1.002178e+03 
+1.002072e+03 
+1.002149e+03 
+1.002079e+03 
+1.002122e+03 
+1.002127e+03 
+1.002177e+03 
+1.002167e+03 
+1.002131e+03 
+1.002087e+03 
+1.002159e+03 
+1.002123e+03 
+1.002097e+03 
+1.002021e+03 
+1.002114e+03 
+1.002039e+03 
+1.002179e+03 
+1.002166e+03 
+1.002060e+03 
+1.002002e+03 
+1.002219e+03 
+1.002064e+03 
+1.002140e+03 
+1.002054e+03 
+1.002184e+03 
+1.002208e+03 
+1.002037e+03 
+1.002017e+03 
+1.002072e+03 
+1.001953e+03 
+1.002087e+03 
+1.002104e+03 
+1.002036e+03 
+1.002057e+03 
+1.002021e+03 
+1.002089e+03 
+1.002063e+03 
+1.002013e+03 
+1.002067e+03 
+1.002083e+03 
+1.002053e+03 
+1.001988e+03 
+1.002123e+03 
+1.002046e+03 
+1.002036e+03 
+1.002049e+03 
+1.001954e+03 
+1.002040e+03 
+1.002036e+03 
+1.002011e+03 
+1.001905e+03 
+1.001934e+03 
+1.002009e+03 
+1.002071e+03 
+1.002101e+03 
+1.001889e+03 
+1.002094e+03 
+1.001870e+03 
+1.002033e+03 
+1.001971e+03 
+1.001920e+03 
+1.001891e+03 
+1.001928e+03 
+1.001923e+03 
+1.002029e+03 
+1.001958e+03 
+1.002051e+03 
+1.001967e+03 
+1.001897e+03 
+1.002009e+03 
+1.001937e+03 
+1.001997e+03 
+1.001928e+03 
+1.001923e+03 
+1.001991e+03 
+1.002001e+03 
+1.001961e+03 
+1.001916e+03 
+1.001955e+03 
+1.001944e+03 
+1.001911e+03 
+1.001932e+03 
+1.002027e+03 
+1.001833e+03 
+1.001906e+03 
+1.002018e+03 
+1.002095e+03 
+1.001647e+03 
+1.002143e+03 
+1.001797e+03 
+1.001936e+03 
+1.001978e+03 
+1.001961e+03 
+1.001744e+03 
+1.001768e+03 
+1.001891e+03 
+1.001836e+03 
+1.001904e+03 
+1.001790e+03 
+1.001830e+03 
+1.001763e+03 
+1.001823e+03 
+1.001787e+03 
+1.001866e+03 
+1.001794e+03 
+1.001946e+03 
+1.001706e+03 
+1.001882e+03 
+1.001781e+03 
+1.001795e+03 
+1.001907e+03 
+1.001693e+03 
+1.001598e+03 
+1.001934e+03 
+1.001792e+03 
+1.001765e+03 
+1.001695e+03 
+1.001730e+03 
+1.001597e+03 
+1.001939e+03 
+1.001805e+03 
+1.001593e+03 
+1.001693e+03 
+1.001600e+03 
+1.001563e+03 
+1.001538e+03 
+1.001719e+03 
+1.001670e+03 
+1.001587e+03 
+1.001505e+03 
+1.001610e+03 
+1.001844e+03 
+1.001418e+03 
+1.001620e+03 
+1.001701e+03 
+1.001616e+03 
+1.001681e+03 
+1.001624e+03 
+1.001598e+03 
+1.001943e+03 
+1.001798e+03 
+1.001497e+03 
+1.001589e+03 
+1.001589e+03 
+1.001537e+03 
+1.001548e+03 
+1.001743e+03 
+1.001981e+03 
+1.001442e+03 
+1.001969e+03 
+1.001490e+03 
+1.001698e+03 
+1.001579e+03 
+1.002140e+03 
+1.001384e+03 
+1.001865e+03 
+1.001637e+03 
+1.001599e+03 
+1.001752e+03 
+1.001356e+03 
+1.001632e+03 
+1.001266e+03 
+1.001531e+03 
+1.001574e+03 
+1.001893e+03 
+1.001257e+03 
+1.001505e+03 
+1.001560e+03 
+1.001420e+03 
+1.001505e+03 
+1.001464e+03 
+1.001411e+03 
+1.001403e+03 
+1.001380e+03 
+1.001575e+03 
+1.001450e+03 
+1.001703e+03 
+1.001326e+03 
+1.001454e+03 
+1.001482e+03 
+1.001757e+03 
+1.001578e+03 
+1.001285e+03 
+1.001244e+03 
+1.001675e+03 
+1.001784e+03 
+1.001536e+03 
+1.001395e+03 
+1.001513e+03 
+1.001287e+03 
+1.001325e+03 
+1.001637e+03 
+1.001417e+03 
+1.001264e+03 
+1.001490e+03 
+1.001357e+03 
+1.001246e+03 
+1.001560e+03 
+1.001272e+03 
+1.001502e+03 
+1.001185e+03 
+1.001226e+03 
+1.001230e+03 
+1.001472e+03 
+1.000994e+03 
+1.001042e+03 
+1.000797e+03 
+1.001259e+03 
+1.000545e+03 
+1.001030e+03 
+1.000807e+03 
+1.000883e+03 
+1.001043e+03 
+1.001067e+03 
+1.000675e+03 
+1.001037e+03 
+1.001183e+03 
+1.000612e+03 
+1.000755e+03 
+1.001373e+03 
+1.001282e+03 
+1.000045e+03 
+1.002223e+03 
+1.000905e+03 
+1.000849e+03 
+1.000142e+03 
+1.001304e+03 
+1.000927e+03 
+1.000998e+03 
+1.000980e+03 
+1.001061e+03 
+1.000993e+03 
+1.001183e+03 
+1.000937e+03 
+1.001211e+03 
+1.000648e+03 
+1.001231e+03 
+1.001025e+03 
+1.001523e+03 
+1.000893e+03 
+1.001411e+03 
+1.000844e+03 
+1.001096e+03 
+1.001771e+03 
+1.000753e+03 
+1.001007e+03 
+1.001164e+03 
+1.001412e+03 
+1.001187e+03 
+1.001204e+03 
+1.000979e+03 
+1.000918e+03 
+1.001484e+03 
+1.000968e+03 
+1.001163e+03 
+1.001541e+03 
+1.001277e+03 
+1.001371e+03 
+1.000934e+03 
+1.001286e+03 
+1.001166e+03 
+1.001009e+03 
+1.000934e+03 
+1.001217e+03 
+1.001516e+03 
+1.000680e+03 
+1.001359e+03 
+1.000950e+03 
+1.001588e+03 
+1.001166e+03 
+1.001042e+03 
+1.001319e+03 
+1.001230e+03 
+1.000760e+03 
+1.000637e+03 
+1.001438e+03 
+1.001504e+03 
+1.000877e+03 
+1.001008e+03 
+1.001176e+03 
+1.000637e+03 
+1.000957e+03 
+1.000676e+03 
+1.000958e+03 
+1.001007e+03 
+1.001094e+03 
+1.001222e+03 
+1.001011e+03 
+1.001097e+03 
+1.000729e+03 
+1.001063e+03 
+1.001054e+03 
+1.000852e+03 
+1.000900e+03 
+1.000884e+03 
+1.001244e+03 
+1.001010e+03 
+1.000974e+03 
+1.000664e+03 
+1.000840e+03 
+1.001151e+03 
+1.001176e+03 
+1.000896e+03 
+1.000873e+03 
+1.001104e+03 
+1.000924e+03 
+1.001155e+03 
+1.001056e+03 
+1.000782e+03 
+1.001130e+03 
+1.001216e+03 
+1.001072e+03 
+1.001557e+03 
+1.001398e+03 
+1.001044e+03 
+1.001273e+03 
+1.000996e+03 
+1.001359e+03 
+1.001234e+03 
+1.001349e+03 
+1.001123e+03 
+1.001659e+03 
+1.001647e+03 
+1.002131e+03 
+1.001315e+03 
+1.001149e+03 
+1.000654e+03 
+1.002063e+03 
+1.002110e+03 
+1.001924e+03 
+1.001817e+03 
+1.000576e+03 
+1.001809e+03 
+1.001177e+03 
+1.001351e+03 
+1.001276e+03 
+1.001308e+03 
+1.001646e+03 
+1.001535e+03 
+1.001076e+03 
+1.001270e+03 
+1.001075e+03 
+1.001034e+03 
+1.001251e+03 
+1.002107e+03 
+1.001159e+03 
+1.000198e+03 
+1.001700e+03 
+1.001540e+03 
+1.001007e+03 
+9.997495e+02 
+1.001003e+03 
+1.001032e+03 
+1.000402e+03 
+1.000611e+03 
+1.001689e+03 
+1.000955e+03 
+1.000916e+03 
+1.000736e+03 
+1.000887e+03 
+1.000035e+03 
+1.000691e+03 
+1.000360e+03 
+1.000888e+03 
+1.000976e+03 
+1.001176e+03 
+1.000618e+03 
+1.000028e+03 
+1.000913e+03 
+1.001436e+03 
+1.000589e+03 
+1.000636e+03 
+1.000477e+03 
+1.001034e+03 
+1.001103e+03 
+1.000125e+03 
+1.000785e+03 
+1.000669e+03 
+1.000954e+03 
+1.001051e+03 
+1.000836e+03 
+1.000669e+03 
+1.001074e+03 
+1.001325e+03 
+1.000930e+03 
+1.000928e+03 
+1.001614e+03 
+1.001248e+03 
+1.002056e+03 
+1.001465e+03 
+1.001650e+03 
+1.001570e+03 
+1.001716e+03 
+1.002019e+03 
+1.001839e+03 
+1.001507e+03 
+1.001518e+03 
+1.002002e+03 
+1.001424e+03 
+1.002028e+03 
+1.002246e+03 
+1.001755e+03 
+1.002053e+03 
+1.001973e+03 
+1.001759e+03 
+1.002054e+03 
+1.002263e+03 
+1.001984e+03 
+1.002242e+03 
+1.002355e+03 
+1.002078e+03 
+1.002248e+03 
+1.002276e+03 
+1.002387e+03 
+1.002224e+03 
+1.002516e+03 
+1.002593e+03 
+1.002535e+03 
+1.002570e+03 
+1.002316e+03 
+1.002251e+03 
+1.002684e+03 
+1.002747e+03 
+1.002563e+03 
+1.002652e+03 
+1.002225e+03 
+1.002219e+03 
+1.002178e+03 
+1.002172e+03 
+1.002231e+03 
+1.002212e+03 
+1.002166e+03 
+1.002170e+03 
+1.002206e+03 
+1.002245e+03 
+1.002145e+03 
+1.002203e+03 
+1.002246e+03 
+1.002144e+03 
+1.002235e+03 
+1.002188e+03 
+1.002178e+03 
+1.002223e+03 
+1.002099e+03 
+1.002124e+03 
+1.002118e+03 
+1.002213e+03 
+1.002158e+03 
+1.002201e+03 
+1.002151e+03 
+1.002069e+03 
+1.002073e+03 
+1.002180e+03 
+1.002195e+03 
+1.002139e+03 
+1.002133e+03 
+1.002039e+03 
+1.002032e+03 
+1.002120e+03 
+1.002191e+03 
+1.002109e+03 
+1.002177e+03 
+1.002095e+03 
+1.002004e+03 
+1.002042e+03 
+1.002176e+03 
+1.002221e+03 
+1.002168e+03 
+1.002114e+03 
+1.002068e+03 
+1.002061e+03 
+1.002217e+03 
+1.002067e+03 
+1.002140e+03 
+1.002187e+03 
+1.002141e+03 
+1.002037e+03 
+1.002053e+03 
+1.002198e+03 
+1.002145e+03 
+1.002151e+03 
+1.002058e+03 
+1.002062e+03 
+1.002172e+03 
+1.002051e+03 
+1.002179e+03 
+1.002014e+03 
+1.002073e+03 
+1.002203e+03 
+1.002037e+03 
+1.002139e+03 
+1.002196e+03 
+1.002046e+03 
+1.002094e+03 
+1.002175e+03 
+1.002114e+03 
+1.002043e+03 
+1.002143e+03 
+1.002120e+03 
+1.002054e+03 
+1.002172e+03 
+1.002078e+03 
+1.002123e+03 
+1.002162e+03 
+1.002063e+03 
+1.002092e+03 
+1.002151e+03 
+1.002039e+03 
+1.002153e+03 
+1.002036e+03 
+1.002029e+03 
+1.002096e+03 
+1.002067e+03 
+1.002133e+03 
+1.002007e+03 
+1.002086e+03 
+1.002058e+03 
+1.001958e+03 
+1.002126e+03 
+1.002013e+03 
+1.002088e+03 
+1.002178e+03 
+1.002010e+03 
+1.002067e+03 
+1.001963e+03 
+1.002138e+03 
+1.002019e+03 
+1.002062e+03 
+1.002112e+03 
+1.002065e+03 
+1.001984e+03 
+1.002143e+03 
+1.002022e+03 
+1.002077e+03 
+1.002026e+03 
+1.002105e+03 
+1.002039e+03 
+1.002054e+03 
+1.001934e+03 
+1.002086e+03 
+1.002058e+03 
+1.001990e+03 
+1.002103e+03 
+1.002029e+03 
+1.001946e+03 
+1.002076e+03 
+1.002025e+03 
+1.001955e+03 
+1.002113e+03 
+1.002042e+03 
+1.002047e+03 
+1.002063e+03 
+1.001967e+03 
+1.002036e+03 
+1.001955e+03 
+1.002077e+03 
+1.001954e+03 
+1.002032e+03 
+1.002103e+03 
+1.001943e+03 
+1.001941e+03 
+1.002026e+03 
+1.002084e+03 
+1.001944e+03 
+1.002040e+03 
+1.002056e+03 
+1.001973e+03 
+1.002066e+03 
+1.001937e+03 
+1.001914e+03 
+1.002044e+03 
+1.001866e+03 
+1.001971e+03 
+1.002031e+03 
+1.001863e+03 
+1.001955e+03 
+1.001987e+03 
+1.001893e+03 
+1.001943e+03 
+1.001990e+03 
+1.001850e+03 
+1.001954e+03 
+1.001987e+03 
+1.001871e+03 
+1.001956e+03 
+1.001991e+03 
+1.001809e+03 
+1.001922e+03 
+1.001859e+03 
+1.001991e+03 
+1.001917e+03 
+1.002022e+03 
+1.001813e+03 
+1.001892e+03 
+1.001865e+03 
+1.001987e+03 
+1.001971e+03 
+1.001891e+03 
+1.001975e+03 
+1.001865e+03 
+1.001959e+03 
+1.001943e+03 
+1.001895e+03 
+1.001893e+03 
+1.001871e+03 
+1.001916e+03 
+1.001887e+03 
+1.002000e+03 
+1.001871e+03 
+1.001877e+03 
+1.001965e+03 
+1.001789e+03 
+1.001815e+03 
+1.001928e+03 
+1.001911e+03 
+1.001863e+03 
+1.001774e+03 
+1.002003e+03 
+1.001839e+03 
+1.001916e+03 
+1.001872e+03 
+1.001808e+03 
+1.001931e+03 
+1.001862e+03 
+1.001785e+03 
+1.001986e+03 
+1.001814e+03 
+1.001864e+03 
+1.001865e+03 
+1.001762e+03 
+1.001887e+03 
+1.001765e+03 
+1.001815e+03 
+1.001878e+03 
+1.001782e+03 
+1.001855e+03 
+1.001935e+03 
+1.001708e+03 
+1.001768e+03 
+1.001760e+03 
+1.001940e+03 
+1.001829e+03 
+1.001799e+03 
+1.001853e+03 
+1.001696e+03 
+1.001791e+03 
+1.001870e+03 
+1.001883e+03 
+1.001757e+03 
+1.001867e+03 
+1.001900e+03 
+1.001678e+03 
+1.001718e+03 
+1.001862e+03 
+1.001877e+03 
+1.001725e+03 
+1.001688e+03 
+1.001733e+03 
+1.001768e+03 
+1.001849e+03 
+1.001793e+03 
+1.001701e+03 
+1.001702e+03 
+1.001701e+03 
+1.001772e+03 
+1.001584e+03 
+1.001775e+03 
+1.001688e+03 
+1.001806e+03 
+1.001745e+03 
+1.001639e+03 
+1.001696e+03 
+1.001724e+03 
+1.001645e+03 
+1.001765e+03 
+1.001681e+03 
+1.001783e+03 
+1.001685e+03 
+1.001628e+03 
+1.001673e+03 
+1.001735e+03 
+1.001638e+03 
+1.001668e+03 
+1.001759e+03 
+1.001659e+03 
+1.001736e+03 
+1.001529e+03 
+1.001647e+03 
+1.001574e+03 
+1.001646e+03 
+1.001622e+03 
+1.001666e+03 
+1.001617e+03 
+1.001651e+03 